<?xml version="1.0"?>
<VTKFile type="UnstructuredGrid"  version="0.1"  >
<UnstructuredGrid>
<Piece  NumberOfPoints="16641" NumberOfCells="16384">
<Points>
<DataArray  type="Float64"  NumberOfComponents="3"  format="ascii">0 0 0  0.0078125 0 0  0.015625 0 0  0.0234375 0 0  0.03125 0 0  0.0390625 0 0  0.046875 0 0  0.0546875 0 0  0.0625 0 0  0.0703125 0 0  0.078125 0 0  0.0859375 0 0  0.09375 0 0  0.1015625 0 0  0.109375 0 0  0.1171875 0 0  0.125 0 0  0.1328125 0 0  0.140625 0 0  0.1484375 0 0  0.15625 0 0  0.1640625 0 0  0.171875 0 0  0.1796875 0 0  0.1875 0 0  0.1953125 0 0  0.203125 0 0  0.2109375 0 0  0.21875 0 0  0.2265625 0 0  0.234375 0 0  0.2421875 0 0  0.25 0 0  0.2578125 0 0  0.265625 0 0  0.2734375 0 0  0.28125 0 0  0.2890625 0 0  0.296875 0 0  0.3046875 0 0  0.3125 0 0  0.3203125 0 0  0.328125 0 0  0.3359375 0 0  0.34375 0 0  0.3515625 0 0  0.359375 0 0  0.3671875 0 0  0.375 0 0  0.3828125 0 0  0.390625 0 0  0.3984375 0 0  0.40625 0 0  0.4140625 0 0  0.421875 0 0  0.4296875 0 0  0.4375 0 0  0.4453125 0 0  0.453125 0 0  0.4609375 0 0  0.46875 0 0  0.4765625 0 0  0.484375 0 0  0.4921875 0 0  0.5 0 0  0.5078125 0 0  0.515625 0 0  0.5234375 0 0  0.53125 0 0  0.5390625 0 0  0.546875 0 0  0.5546875 0 0  0.5625 0 0  0.5703125 0 0  0.578125 0 0  0.5859375 0 0  0.59375 0 0  0.6015625 0 0  0.609375 0 0  0.6171875 0 0  0.625 0 0  0.6328125 0 0  0.640625 0 0  0.6484375 0 0  0.65625 0 0  0.6640625 0 0  0.671875 0 0  0.6796875 0 0  0.6875 0 0  0.6953125 0 0  0.703125 0 0  0.7109375 0 0  0.71875 0 0  0.7265625 0 0  0.734375 0 0  0.7421875 0 0  0.75 0 0  0.7578125 0 0  0.765625 0 0  0.7734375 0 0  0.78125 0 0  0.7890625 0 0  0.796875 0 0  0.8046875 0 0  0.8125 0 0  0.8203125 0 0  0.828125 0 0  0.8359375 0 0  0.84375 0 0  0.8515625 0 0  0.859375 0 0  0.8671875 0 0  0.875 0 0  0.8828125 0 0  0.890625 0 0  0.8984375 0 0  0.90625 0 0  0.9140625 0 0  0.921875 0 0  0.9296875 0 0  0.9375 0 0  0.9453125 0 0  0.953125 0 0  0.9609375 0 0  0.96875 0 0  0.9765625 0 0  0.984375 0 0  0.9921875 0 0  1 0 0  0 0.0078125 0  0.0078125 0.0078125 0  0.015625 0.0078125 0  0.0234375 0.0078125 0  0.03125 0.0078125 0  0.0390625 0.0078125 0  0.046875 0.0078125 0  0.0546875 0.0078125 0  0.0625 0.0078125 0  0.0703125 0.0078125 0  0.078125 0.0078125 0  0.0859375 0.0078125 0  0.09375 0.0078125 0  0.1015625 0.0078125 0  0.109375 0.0078125 0  0.1171875 0.0078125 0  0.125 0.0078125 0  0.1328125 0.0078125 0  0.140625 0.0078125 0  0.1484375 0.0078125 0  0.15625 0.0078125 0  0.1640625 0.0078125 0  0.171875 0.0078125 0  0.1796875 0.0078125 0  0.1875 0.0078125 0  0.1953125 0.0078125 0  0.203125 0.0078125 0  0.2109375 0.0078125 0  0.21875 0.0078125 0  0.2265625 0.0078125 0  0.234375 0.0078125 0  0.2421875 0.0078125 0  0.25 0.0078125 0  0.2578125 0.0078125 0  0.265625 0.0078125 0  0.2734375 0.0078125 0  0.28125 0.0078125 0  0.2890625 0.0078125 0  0.296875 0.0078125 0  0.3046875 0.0078125 0  0.3125 0.0078125 0  0.3203125 0.0078125 0  0.328125 0.0078125 0  0.3359375 0.0078125 0  0.34375 0.0078125 0  0.3515625 0.0078125 0  0.359375 0.0078125 0  0.3671875 0.0078125 0  0.375 0.0078125 0  0.3828125 0.0078125 0  0.390625 0.0078125 0  0.3984375 0.0078125 0  0.40625 0.0078125 0  0.4140625 0.0078125 0  0.421875 0.0078125 0  0.4296875 0.0078125 0  0.4375 0.0078125 0  0.4453125 0.0078125 0  0.453125 0.0078125 0  0.4609375 0.0078125 0  0.46875 0.0078125 0  0.4765625 0.0078125 0  0.484375 0.0078125 0  0.4921875 0.0078125 0  0.5 0.0078125 0  0.5078125 0.0078125 0  0.515625 0.0078125 0  0.5234375 0.0078125 0  0.53125 0.0078125 0  0.5390625 0.0078125 0  0.546875 0.0078125 0  0.5546875 0.0078125 0  0.5625 0.0078125 0  0.5703125 0.0078125 0  0.578125 0.0078125 0  0.5859375 0.0078125 0  0.59375 0.0078125 0  0.6015625 0.0078125 0  0.609375 0.0078125 0  0.6171875 0.0078125 0  0.625 0.0078125 0  0.6328125 0.0078125 0  0.640625 0.0078125 0  0.6484375 0.0078125 0  0.65625 0.0078125 0  0.6640625 0.0078125 0  0.671875 0.0078125 0  0.6796875 0.0078125 0  0.6875 0.0078125 0  0.6953125 0.0078125 0  0.703125 0.0078125 0  0.7109375 0.0078125 0  0.71875 0.0078125 0  0.7265625 0.0078125 0  0.734375 0.0078125 0  0.7421875 0.0078125 0  0.75 0.0078125 0  0.7578125 0.0078125 0  0.765625 0.0078125 0  0.7734375 0.0078125 0  0.78125 0.0078125 0  0.7890625 0.0078125 0  0.796875 0.0078125 0  0.8046875 0.0078125 0  0.8125 0.0078125 0  0.8203125 0.0078125 0  0.828125 0.0078125 0  0.8359375 0.0078125 0  0.84375 0.0078125 0  0.8515625 0.0078125 0  0.859375 0.0078125 0  0.8671875 0.0078125 0  0.875 0.0078125 0  0.8828125 0.0078125 0  0.890625 0.0078125 0  0.8984375 0.0078125 0  0.90625 0.0078125 0  0.9140625 0.0078125 0  0.921875 0.0078125 0  0.9296875 0.0078125 0  0.9375 0.0078125 0  0.9453125 0.0078125 0  0.953125 0.0078125 0  0.9609375 0.0078125 0  0.96875 0.0078125 0  0.9765625 0.0078125 0  0.984375 0.0078125 0  0.9921875 0.0078125 0  1 0.0078125 0  0 0.015625 0  0.0078125 0.015625 0  0.015625 0.015625 0  0.0234375 0.015625 0  0.03125 0.015625 0  0.0390625 0.015625 0  0.046875 0.015625 0  0.0546875 0.015625 0  0.0625 0.015625 0  0.0703125 0.015625 0  0.078125 0.015625 0  0.0859375 0.015625 0  0.09375 0.015625 0  0.1015625 0.015625 0  0.109375 0.015625 0  0.1171875 0.015625 0  0.125 0.015625 0  0.1328125 0.015625 0  0.140625 0.015625 0  0.1484375 0.015625 0  0.15625 0.015625 0  0.1640625 0.015625 0  0.171875 0.015625 0  0.1796875 0.015625 0  0.1875 0.015625 0  0.1953125 0.015625 0  0.203125 0.015625 0  0.2109375 0.015625 0  0.21875 0.015625 0  0.2265625 0.015625 0  0.234375 0.015625 0  0.2421875 0.015625 0  0.25 0.015625 0  0.2578125 0.015625 0  0.265625 0.015625 0  0.2734375 0.015625 0  0.28125 0.015625 0  0.2890625 0.015625 0  0.296875 0.015625 0  0.3046875 0.015625 0  0.3125 0.015625 0  0.3203125 0.015625 0  0.328125 0.015625 0  0.3359375 0.015625 0  0.34375 0.015625 0  0.3515625 0.015625 0  0.359375 0.015625 0  0.3671875 0.015625 0  0.375 0.015625 0  0.3828125 0.015625 0  0.390625 0.015625 0  0.3984375 0.015625 0  0.40625 0.015625 0  0.4140625 0.015625 0  0.421875 0.015625 0  0.4296875 0.015625 0  0.4375 0.015625 0  0.4453125 0.015625 0  0.453125 0.015625 0  0.4609375 0.015625 0  0.46875 0.015625 0  0.4765625 0.015625 0  0.484375 0.015625 0  0.4921875 0.015625 0  0.5 0.015625 0  0.5078125 0.015625 0  0.515625 0.015625 0  0.5234375 0.015625 0  0.53125 0.015625 0  0.5390625 0.015625 0  0.546875 0.015625 0  0.5546875 0.015625 0  0.5625 0.015625 0  0.5703125 0.015625 0  0.578125 0.015625 0  0.5859375 0.015625 0  0.59375 0.015625 0  0.6015625 0.015625 0  0.609375 0.015625 0  0.6171875 0.015625 0  0.625 0.015625 0  0.6328125 0.015625 0  0.640625 0.015625 0  0.6484375 0.015625 0  0.65625 0.015625 0  0.6640625 0.015625 0  0.671875 0.015625 0  0.6796875 0.015625 0  0.6875 0.015625 0  0.6953125 0.015625 0  0.703125 0.015625 0  0.7109375 0.015625 0  0.71875 0.015625 0  0.7265625 0.015625 0  0.734375 0.015625 0  0.7421875 0.015625 0  0.75 0.015625 0  0.7578125 0.015625 0  0.765625 0.015625 0  0.7734375 0.015625 0  0.78125 0.015625 0  0.7890625 0.015625 0  0.796875 0.015625 0  0.8046875 0.015625 0  0.8125 0.015625 0  0.8203125 0.015625 0  0.828125 0.015625 0  0.8359375 0.015625 0  0.84375 0.015625 0  0.8515625 0.015625 0  0.859375 0.015625 0  0.8671875 0.015625 0  0.875 0.015625 0  0.8828125 0.015625 0  0.890625 0.015625 0  0.8984375 0.015625 0  0.90625 0.015625 0  0.9140625 0.015625 0  0.921875 0.015625 0  0.9296875 0.015625 0  0.9375 0.015625 0  0.9453125 0.015625 0  0.953125 0.015625 0  0.9609375 0.015625 0  0.96875 0.015625 0  0.9765625 0.015625 0  0.984375 0.015625 0  0.9921875 0.015625 0  1 0.015625 0  0 0.0234375 0  0.0078125 0.0234375 0  0.015625 0.0234375 0  0.0234375 0.0234375 0  0.03125 0.0234375 0  0.0390625 0.0234375 0  0.046875 0.0234375 0  0.0546875 0.0234375 0  0.0625 0.0234375 0  0.0703125 0.0234375 0  0.078125 0.0234375 0  0.0859375 0.0234375 0  0.09375 0.0234375 0  0.1015625 0.0234375 0  0.109375 0.0234375 0  0.1171875 0.0234375 0  0.125 0.0234375 0  0.1328125 0.0234375 0  0.140625 0.0234375 0  0.1484375 0.0234375 0  0.15625 0.0234375 0  0.1640625 0.0234375 0  0.171875 0.0234375 0  0.1796875 0.0234375 0  0.1875 0.0234375 0  0.1953125 0.0234375 0  0.203125 0.0234375 0  0.2109375 0.0234375 0  0.21875 0.0234375 0  0.2265625 0.0234375 0  0.234375 0.0234375 0  0.2421875 0.0234375 0  0.25 0.0234375 0  0.2578125 0.0234375 0  0.265625 0.0234375 0  0.2734375 0.0234375 0  0.28125 0.0234375 0  0.2890625 0.0234375 0  0.296875 0.0234375 0  0.3046875 0.0234375 0  0.3125 0.0234375 0  0.3203125 0.0234375 0  0.328125 0.0234375 0  0.3359375 0.0234375 0  0.34375 0.0234375 0  0.3515625 0.0234375 0  0.359375 0.0234375 0  0.3671875 0.0234375 0  0.375 0.0234375 0  0.3828125 0.0234375 0  0.390625 0.0234375 0  0.3984375 0.0234375 0  0.40625 0.0234375 0  0.4140625 0.0234375 0  0.421875 0.0234375 0  0.4296875 0.0234375 0  0.4375 0.0234375 0  0.4453125 0.0234375 0  0.453125 0.0234375 0  0.4609375 0.0234375 0  0.46875 0.0234375 0  0.4765625 0.0234375 0  0.484375 0.0234375 0  0.4921875 0.0234375 0  0.5 0.0234375 0  0.5078125 0.0234375 0  0.515625 0.0234375 0  0.5234375 0.0234375 0  0.53125 0.0234375 0  0.5390625 0.0234375 0  0.546875 0.0234375 0  0.5546875 0.0234375 0  0.5625 0.0234375 0  0.5703125 0.0234375 0  0.578125 0.0234375 0  0.5859375 0.0234375 0  0.59375 0.0234375 0  0.6015625 0.0234375 0  0.609375 0.0234375 0  0.6171875 0.0234375 0  0.625 0.0234375 0  0.6328125 0.0234375 0  0.640625 0.0234375 0  0.6484375 0.0234375 0  0.65625 0.0234375 0  0.6640625 0.0234375 0  0.671875 0.0234375 0  0.6796875 0.0234375 0  0.6875 0.0234375 0  0.6953125 0.0234375 0  0.703125 0.0234375 0  0.7109375 0.0234375 0  0.71875 0.0234375 0  0.7265625 0.0234375 0  0.734375 0.0234375 0  0.7421875 0.0234375 0  0.75 0.0234375 0  0.7578125 0.0234375 0  0.765625 0.0234375 0  0.7734375 0.0234375 0  0.78125 0.0234375 0  0.7890625 0.0234375 0  0.796875 0.0234375 0  0.8046875 0.0234375 0  0.8125 0.0234375 0  0.8203125 0.0234375 0  0.828125 0.0234375 0  0.8359375 0.0234375 0  0.84375 0.0234375 0  0.8515625 0.0234375 0  0.859375 0.0234375 0  0.8671
[...]
<PointData  Scalars="v_sol"> 
<DataArray  type="Float64"  Name="v_sol"  format="ascii">-1.4623932485235977e-06  -3.8767209021484784e-06  1.7673269265880764e-06  1.0933212457525770e-05  2.1099171841538960e-05  3.0757177157010392e-05  3.8858399788697217e-05  4.4659808752770361e-05  4.7727609849200442e-05  4.7979770667343610e-05  4.5672269709023601e-05  4.1342557079579256e-05  3.5707300828805038e-05  2.9547667326721954e-05  2.3601736767475550e-05  1.8484456694964206e-05  1.4640731066202308e-05  1.2329899001949154e-05  1.1632263881201900e-05  1.2467445286363288e-05  1.4616542854209835e-05  1.7745574914515656e-05  2.1432939744268795e-05  2.5206508721381852e-05  2.8593904392014527e-05  3.1182380098973442e-05  3.2674994642168574e-05  3.2922817122084223e-05  3.1914485968108982e-05  2.9717334815112532e-05  2.6384726489328246e-05  2.1862536837520033e-05  1.5932280591881885e-05  8.2119851896702477e-06  -1.7931979872874106e-06  -1.4621904208517244e-05  -3.0803756606765422e-05  -5.0838272248945437e-05  -7.5190814454325613e-05  -1.0427724481234464e-04  -1.3842470108256169e-04  -1.7781982101388623e-04  -2.2246084550076330e-04  -2.7211381170083305e-04  -3.2626021415607106e-04  -3.8404348353979499e-04  -4.4425186984495285e-04  -5.0536058070303118e-04  -5.6561009170158277e-04  -6.2308433246871671e-04  -6.7578044861269458e-04  -7.2168491309318353e-04  -7.5886675443362329e-04  -7.8558078022420450e-04  -8.0036154385613263e-04  -8.0208913042432073e-04  -7.9001648635354212e-04  -7.6375959178986324e-04  -7.2325939745682046e-04  -6.6872891022351944e-04  -6.0059832269782976e-04  -5.1946873392000683e-04  -4.2608116409993132e-04  -3.2130432728662745e-04  -2.0614118517405073e-04  -8.1752335150538926e-05  5.0507903397387655e-05  1.8904764023183095e-04  3.3199233143198047e-04  4.7714557500613819e-04  6.2196345176609514e-04  7.6355055400806099e-04  8.9868538855571146e-04  1.0238818418231938e-03  1.1354911402691149e-03  1.2298458240396130e-03  1.3034425369402175e-03  1.3531556490252847e-03  1.3764675800654934e-03  1.3716966465176948e-03  1.3381983842251424e-03  1.2765140683582822e-03  1.1884406679261211e-03  1.0770011665689415e-03  9.4630336198443278e-04  8.0128880312407174e-04  6.4738992912178846e-04  4.9013014825495006e-04  3.3471489314010816e-04  1.8566834445717310e-04  4.6567764446205145e-05  -8.0085497025752413e-05  -1.9283981528775982e-04  -2.9111905809970588e-04  -3.7493369065607328e-04  -4.4453511169830308e-04  -5.0008976849154970e-04  -5.4145841460946642e-04  -5.6815672344587395e-04  -5.7953798891868737e-04  -5.7517233136950138e-04  -5.5531298368300893e-04  -5.2127603846525842e-04  -4.7556448625660550e-04  -4.2165879069361534e-04  -3.6353398785072709e-04  -3.0506772107370678e-04  -2.4952395162950721e-04  -1.9923967496557172e-04  -1.5554955463815745e-04  -1.1890146094479098e-04  -8.9075816852821261e-05  -6.5424354251730546e-05  -4.7072500422878448e-05  -3.3064422923743166e-05  -2.2456740596512925e-05  -1.4377612897255500e-05  -8.0677098587439268e-06  -2.9096531455097080e-06  1.5492080031052210e-06  5.5857818070661996e-06  9.2923583742046899e-06  1.2581770371716394e-05  1.5173930581891441e-05  1.6605671071137025e-05  1.6171938130124218e-05  1.3029766007853739e-05  6.4807268328278684e-06  -2.5563644496957235e-07  6.1910975014990092e-06  2.3446063656683313e-05  -6.5849129998173865e-06  -5.3949548141421529e-05  -1.0599058175844168e-04  -1.5523976482233041e-04  -1.9651439838474049e-04  -2.2601137898535506e-04  -2.4153231677771311e-04  -2.4265227002974503e-04  -2.3070584850559922e-04  -2.0846789523265021e-04  -1.7963263741660061e-04  -1.4820808671484964e-04  -1.1796437592141690e-04  -9.2023967407684081e-05  -7.2630360399774247e-05  -6.1077621226924907e-05  -5.7752415667399913e-05  -6.2232321589943324e-05  -7.3399457045627967e-05  -8.9556572907331230e-05  -1.0856180543650951e-04  -1.2801340003831618e-04  -1.4550543962637603e-04  -1.5893761851225080e-04  -1.6680981209545338e-04  -1.6839380937360592e-04  -1.6368171990740584e-04  -1.5307846891722199e-04  -1.3691519685442142e-04  -1.1495865744900773e-04  -8.6115305260887339e-05  -4.8443340525320727e-05  5.7131259407693271e-07  6.3649339377547752e-05  1.4344906887552142e-04  2.4246381801707156e-04  3.6300440977775789e-04  5.0713201877315500e-04  6.7647476281523604e-04  8.7195987880091513e-04  1.0935430269738990e-03  1.3399786115236329e-03  1.6085983244963232e-03  1.8951103031370842e-03  2.1935574221614140e-03  2.4965247808845310e-03  2.7954993256668809e-03  3.0812385459638436e-03  3.3441248817308636e-03  3.5745632571374331e-03  3.7634420045414641e-03  3.9025999677969013e-03  3.9852093739717537e-03  4.0060045236747976e-03  3.9613349556912002e-03  3.8490666797355980e-03  3.6683804208093251e-03  3.4195255625258715e-03  3.1035828918832254e-03  2.7222784470369195e-03  2.2778771574869130e-03  1.7731726830635865e-03  1.2115786574084107e-03  5.9731661823836195e-04  -6.4312361011795860e-05  -7.6659450378264830e-04  -1.5010398239469552e-03  -2.2570311821945364e-03  -3.0215372257711213e-03  -3.7789518463360199e-03  -4.5111278452326740e-03  -5.1976711308583850e-03  -5.8165504757608779e-03  -6.3450527239939094e-03  -6.7610726725999696e-03  -7.0446737147953171e-03  -7.1797937199844846e-03  -7.1559144619521443e-03  -6.9694719780511597e-03  -6.6247786001456897e-03  -6.1342614947502991e-03  -5.5179019650602283e-03  -4.8018730315716610e-03  -4.0165011498026785e-03  -3.1937948471479232e-03  -2.3648617351315570e-03  -1.5575588415707301e-03  -7.9468479148366174e-04  -9.2933897955385205e-05  5.3728909414912463e-04  1.0912242574860483e-03  1.5684318378598996e-03  1.9710356295321685e-03  2.3018554508564644e-03  2.5627960207623727e-03  2.7538651107080364e-03  2.8731275171830100e-03  2.9177248916212708e-03  2.8857904838755295e-03  2.7787245535008899e-03  2.6030280572378437e-03  2.3709208733772909e-03  2.0993765055037214e-03  1.8078270697669328e-03  1.5152962349081218e-03  1.2378500892223591e-03  9.8701244415340590e-04  7.6934977319348060e-04  5.8701946809653271e-04  4.3885536446040374e-04  3.2156172055565008e-04  2.3072604352575410e-04  1.6154182650729971e-04  1.0927116265029488e-04  6.9537186778449947e-05  3.8525959357087587e-05  1.3138702108593426e-05  -8.8979887380319439e-06  -2.8965183580733895e-05  -4.7524430433236614e-05  -6.4115279638762889e-05  -7.7328290754987661e-05  -8.4809170499832522e-05  -8.2863247554289536e-05  -6.7341895609598790e-05  -3.1315287574559246e-05  5.1802546104687011e-06  1.7799658260876892e-05  2.9410864232454150e-05  -9.1350263105687720e-05  -2.6997442448335637e-04  -4.6680967364774880e-04  -6.5343327648146514e-04  -8.0946100797810075e-04  -9.2042026938654175e-04  -9.7823285022899495e-04  -9.8153815700380135e-04  -9.3535206550945807e-04  -8.4986126790654172e-04  -7.3857669879079423e-04  -6.1624398181475909e-04  -4.9690436825311870e-04  -3.9239647432097832e-04  -3.1142377920689651e-04  -2.5916172824970771e-04  -2.3727405272055393e-04  -2.4417611957742292e-04  -2.7541845423611426e-04  -3.2414416619179969e-04  -3.8165890567011204e-04  -4.3819354591513831e-04  -4.8389927375629084e-04  -5.0998706280520304e-04  -5.0975546258863436e-04  -4.7913732650597848e-04  -4.1644047788821551e-04  -3.2120455771629438e-04  -1.9247710268736255e-04  -2.7140257855215279e-05  1.8102254129075110e-04  4.4114254277643735e-04  7.6413641218539834e-04  1.1612411891565378e-03  1.6428137326443676e-03  2.2175620447980448e-03  2.8919348286522285e-03  3.6693321874917716e-03  4.5490289305538997e-03  5.5249195335925483e-03  6.5843914777507784e-03  7.7077279179227718e-03  8.8682069341373595e-03  1.0032844926315036e-02  1.1163830528302970e-02  1.2220708094020675e-02  1.3163097657727180e-02  1.3953507277977045e-02  1.4559790282126034e-02  1.4956929460431491e-02  1.5127983750865985e-02  1.5064180281345476e-02  1.4764263779996237e-02  1.4233308220222281e-02  1.3481235368315459e-02  1.2521276776512802e-02  1.1368569765859085e-02  1.0039016951090192e-02  8.5484787157344283e-03  6.9123170001348377e-03  5.1452752027591137e-03  3.2616572991691732e-03  1.2757591744178148e-03  -7.9749946470383023e-04  -2.9417969076464385e-03  -5.1385433827747552e-03  -7.3659941784739152e-03  -9.5984202219610692e-03  -1.1805431462432348e-02  -1.3951563705084996e-02  -1.5996253904583372e-02  -1.7894330883396925e-02  -1.9597133311997021e-02  -2.1054326198553897e-02  -2.2216415933373663e-02  -2.3037863116916524e-02  -2.3480572622984294e-02  -2.3517421181127287e-02  -2.3135392389324973e-02  -2.2337858944130980e-02  -2.1145603183067973e-02  -1.9596305677893829e-02  -1.7742438408337363e-02  -1.5647733656079653e-02  -1.3382614605585191e-02  -1.1019122468351574e-02  -8.6259361528921927e-03  -6.2640566839489500e-03  -3.9836374724218637e-03  -1.8223118709698725e-03  1.9478175849549264e-04  2.0532462333651977e-03  3.7461098226702124e-03  5.2693591545352825e-03  6.6170283950333190e-03  7.7768765956929943e-03  8.7279411605004874e-03  9.4412626459861801e-03  9.8846027589105882e-03  1.0030870386983670e-02  9.8683846524580589e-03  9.4096699596345982e-03  8.6951594443117897e-03  7.7896377933842111e-03  6.7721026666706739e-03  5.7224603613737933e-03  4.7094845096887642e-03  3.7833105619552972e-03  2.9734002360133228e-03  2.2908393935202058e-03  1.7328919157469482e-03  1.2879095357436875e-03  9.3947016526520915e-04  6.6941083235736928e-04  4.5990280747339277e-04  2.9485257961878755e-04  1.6084570359447200e-04  4.7749363528270447e-05  -5.0969845402709025e-05  -1.3814779518608525e-04  -2.1298009268338054e-04  -2.7110455535493645e-04  -3.0476676628131909e-04  -3.0283605383404932e-04  -2.5271995021864025e-04  -1.4377956178616462e-04  1.1335762381596590e-06  2.4973294141939104e-05  -3.3162129221385747e-05  -2.9366783172694248e-04  -6.5222461486335725e-04  -1.0411365645346517e-03  -1.4071589645044780e-03  -1.7103092416043337e-03  -1.9225700032862007e-03  -2.0289332126683908e-03  -2.0276552380685676e-03  -1.9292093880765647e-03  -1.7537355223858568e-03  -1.5274734053785477e-03  -1.2788545142537119e-03  -1.0349181925400322e-03  -8.1851468803317612e-04  -6.4649655587148186e-04  -5.2885566394940712e-04  -4.6860248318037314e-04  -4.6213337609270439e-04  -4.9988898747078514e-04  -5.6723610548145944e-04  -6.4563975072055445e-04  -7.1424679556497379e-04  -7.5190782018456123e-04  -7.3941420553711508e-04  -6.6141776345346275e-04  -5.0731755128991657e-04  -2.7053943135644642e-04  5.3830600225354917e-05  4.7233601981477662e-04  9.9604117198690413e-04  1.6416989496605601e-03  2.4306117094113570e-03  3.3857024761937957e-03  4.5280104172506375e-03  5.8736309505571819e-03  7.4312906696422359e-03  9.2000543631786565e-03  1.1166789425883356e-02  1.3303777354563080e-02  1.5567267728710166e-02  1.7897592758029483e-02  2.0221266831020827e-02  2.2455230847512352e-02  2.4512893093639188e-02  2.6311120114366628e-02  2.7777043287733071e-02  2.8853551520019310e-02  2.9502644307374457e-02  2.9706316770940759e-02  2.9465169227490619e-02  2.8795326199637865e-02  2.7724425530866049e-02  2.6287405742200919e-02  2.4522651280143127e-02  2.2468838907537224e-02  2.0162628349856798e-02  1.7637192723991453e-02  1.4921495839851352e-02  1.2040183790123941e-02  9.0139570665625796e-03  5.8603037610729979e-03  2.5945012048798058e-03  -7.6918464833198804e-04  -4.2161528465846998e-03  -7.7300181407508719e-03  -1.1291102473459476e-02  -1.4874925356107583e-02  -1.8450773534438868e-02  -2.1980463990697797e-02  -2.5417450409737086e-02  -2.8706459528864026e-02  -3.1783866556452801e-02  -3.4579016554281861e-02  -3.7016655474207051e-02  -3.9020538107431287e-02  -4.0518124521297626e-02  -4.1446073257821965e-02  -4.1756017059506198e-02  -4.1419914937699150e-02  -4.0434176528912527e-02  -3.8821803419057936e-02  -3.6632015664822770e-02  -3.3937204412558958e-02  -3.0827498704584452e-02  -2.7403644335550221e-02  -2.3769158342364777e-02  -2.0022783801445398e-02  -1.6252133942384835e-02  -1.2529154567999953e-02  -8.9077517554594435e-03  -5.4237142920559589e-03  -2.0969349184141680e-03  1.0641369097886930e-03  4.0559908497751814e-03  6.8719462481667262e-03  9.4933850342007742e-03  1.1882005122573381e-02  1.3975550265112316e-02  1.5689874469507665e-02  1.6929590889736012e-02  1.7607375137146952e-02  1.7668325663170659e-02  1.7111976598959855e-02  1.6003092425735652e-02  1.4465352457966912e-02  1.2658930107839630e-02  1.0750012548679432e-02  8.8830579303778873e-03  7.1636875641722560e-03  5.6541956977349105e-03  4.3786682396966467e-03  3.3327822944917503e-03  2.4941539769096641e-03  1.8310176807393274e-03  1.3086636932642106e-03  8.9390237010864503e-04  5.5801233234785582e-04  2.7854040601795572e-04  4.0218577708845192e-05  -1.6477961024791670e-04  -3.3701995258152991e-04  -4.7023747715843443e-04  -5.5194016806213734e-04  -5.6438008349085742e-04  -4.8707645369251625e-04  -3.0224951617867553e-04  -8.1955698146463818e-06  2.9462523890891206e-05  -1.7054930988919480e-04  -6.2282654936487308e-04  -1.2039228161334005e-03  -1.8192560417910572e-03  -2.3896400897294554e-03  -2.8537235209657188e-03  -3.1691373173178068e-03  -3.3145232888439026e-03  -3.2896375864199501e-03  -3.1130890929166630e-03  -2.8178694848605712e-03  -2.4455582045940392e-03  -2.0402804947609061e-03  -1.6433520992786962e-03  -1.2891957685010323e-03  -1.0027215219117586e-03  -7.9804501231730705e-04  -6.7823514815017845e-04  -6.3575321717125881e-04  -6.5335365312314971e-04  -7.0540756876396043e-04  -7.5978692577867066e-04  -7.8048434609365050e-04  -7.3093988512875686e-04  -5.7760876765802500e-04  -2.9281553458561230e-04  1.4426624264705809e-04  7.4927515399258462e-04  1.5366871479577651e-03  2.5246342696753610e-03  3.7381664625523127e-03  5.2090140680954369e-03  6.9714720721065562e-03  9.0558141929028679e-03  1.1481353343119845e-02  1.4250431344089064e-02  1.7343442612982068e-02  2.0714856377914287e-02  2.4290878191835955e-02  2.7969966345288300e-02  3.1627328730069071e-02  3.5123661854367091e-02  3.8317182346395043e-02  4.1076954452076590e-02  4.3294999029622382e-02  4.4894901867763189e-02  4.5835571340977377e-02  4.6110056129119607e-02  4.5740435473392217e-02  4.4770406098073139e-02  4.3257237552175531e-02  4.1264405679772645e-02  3.8855674404480525e-02  3.6090892237114890e-02  3.3023406218106399e-02  2.9698805302627328e-02  2.6154648239629562e-02  2.2420861344447686e-02  1.8520560043248337e-02  1.4471126410591678e-02  1.0285440644043594e-02  5.9732168813017355e-03  1.5424270418114337e-03  -2.9991830409752456e-03  -7.6424743364989891e-03  -1.2375184400541727e-02  -1.7180093169591262e-02  -2.2033115911742746e-02  -2.6901394174209496e-02  -3.1741501644475645e-02  -3.6497945093660604e-02  -4.1102202275906469e-02  -4.5472599013486395e-02  -4.9515362315043193e-02  -5.3127176128721601e-02  -5.6199481543952226e-02  -5.8624586843472895e-02  -6.0303370915568359e-02  -6.1154009119341088e-02  -6.1120769808336223e-02  -6.0181634882074113e-02  -5.8353388766613355e-02  -5.5693001746007852e-02  -5.2294628755399225e-02  -4.8282285390741989e-02  -4.3799077431174248e-02  -3.8994527084581010e-02  -3.4011862641254373e-02  -2.8977034853533520e-02  -2.3990759783052769e-02  -1.9124246260284153e-02  -1.4418679206942760e-02  -9.8881615503708681e-03  -5.5257247757478150e-03  -1.3121063154802977e-03  2.7729415596003271e-03  6.7372553055112501e-03  1.0561911538527006e-02  1.4188293339682558e-02  1.7510461832987684e-02  2.0377819393632635e-02  2.2612504422940268e-02  2.4042511850600232e-02  2.4545005608912786e-02  2.4086943256400203e-02  2.2746737968422231e-02  2.0705654260460393e-02  1.8210314284967586e-02  1.5520813445318572e-02  1.2863836623229196e-02  1.0404429416786506e-02  8.2391819712362736e-03  6.4050441001549264e-03  4.8953159344783306e-03  3.6762268320974030e-03  2.7007778779847016e-03  1.9189963371780204e-03  1.2849180739968340e-03  7.6091887085195692e-04  3.1999913922391436e-04  -5.3429812696139131e-05  -3.6375679795573205e-04  -6.0496585302153042e-04  -7.6174593773237502e-04  -8.1103146233314240e-04  -7.2407408773533170e-04  -4.7045856005686437e-04  -1.8513434190730526e-05  3.2669196080812552e-05  -3.8050953292732717e-04  -1.0812258612651680e-03  -1.9282507109894657e-03  -2.8002577250837491e-03  -3.5910102263593474e-03  -4.2169915442520061e-03  -4.6219923661498952e-03  -4.7805404253639383e-03  -4.6975413485501934e-03  -4.4040658258907277e-03  -3.9500707235478275e-03  -3.3956498788352842e-03  -2.8024484086324047e-03  -2.2264673770847430e-03  -1.7128660612614989e-03  -1.2928021654388174e-03  -9.8197234973924170e-04  -7.8036884259826116e-04  -6.7283057746812867e-04  -6.3018581936237570e-04  -6.1106722112378668e-04  -5.6468773327794002e-04  -4.3481996684487410e-04  -1.6479740265163816e-04  2.9737714535813518e-04  9.9540660826503871e-04  1.9641956769050908e-03  3.2330916374490311e-03  4.8315895014070277e-03  6.7943918909523738e-03  9.1622789441469753e-03  1.1976907598185706e-02  1.5270610432841090e-02  1.9054370668225677e-02  2.3307069528813156e-02  2.7967728495450810e-02  3.2931625886982785e-02  3.8051504037442042e-02  4.3145357549985573e-02  4.8011193565542919e-02  5.2447002214912143e-02  5.6272163300176932e-02  5.9345662167760063e-02  6.1577278619046626e-02  6.2930044455609832e-02  6.3414778803210822e-02  6.3079340248134497e-02  6.1995843114240057e-02  6.0248592885752780e-02  5.7924425174970040e-02  5.5106027424402834e-02  5.1868021108294499e-02  4.8275175507358235e-02  4.4382042778719710e-02  4.0233410787412889e-02  3.5865151148883993e-02  3.1305210576460803e-02  2.6574628155537371e-02  2.1688542369467233e-02  1.6657201634423722e-02  1.1487009841288516e-02  6.1816481852050090e-03  7.4331223348166823e-04  -4.8258968870756392e-03  -1.0522394895055012e-02  -1.6339323147560453e-02  -2.2264532078165433e-02  -2.8278347333698460e-02  -3.4351164470178538e-02  -4.0440967844008767e-02  -4.6490942717624384e-02  -5.2427436912598734e-02  -5.8158630026225032e-02  -6.3574363499218384e-02  -6.8547650078335284e-02  -7.2938375713736320e-02  -7.6599588652367892e-02  -7.9386495854693498e-02  -8.1167846328300888e-02  -8.1838803149104189e-02  -8.1333796228261437e-02  -7.9637370963978382e-02  -7.6790895195310363e-02  -7.2893321595565511e-02  -6.8095059996866020e-02  -6.2585261069649303e-02  -5.6574148145322245e-02  -5.0273072291372817e-02  -4.3875382956822688e-02  -3.7540877276672859e-02  -3.1385665696847670e-02  -2.5478124343204046e-02  -1.9840608951832275e-02  -1.4456061999557165e-02  -9.2786127122574651e-03  -4.2475756612609383e-03  6.9544816766825264e-04  5.5867959934301761e-03  1.0419637778214268e-02  1.5124702280803809e-02  1.9558380643657072e-02  2.3505643671271417e-02  2.6704710736884348e-02  2.8895421197252327e-02  2.9883308282626628e-02  2.9599981628330298e-02  2.8135259737133975e-02  2.5724515677554814e-02  2.2694361168270914e-02  1.9389112879415644e-02  1.6106332133304136e-02  1.3059825203481293e-02  1.0372338605134108e-02  8.0888351935061754e-03  6.1986169061858890e-03  4.6577255766998360e-03  3.4074379623664805e-03  2.3877412885671434e-03  1.5461379280842268e-03  8.4263098673637200e-04  2.5185145928536737e-04  -2.3673499560305288e-04  -6.1973869873437960e-04  -8.8120752635173678e-04  -9.9425161088324897e-04  -9.2204842131435446e-04  -6.2007679494829990e-04  -2.8453542681695398e-05  3.5748032144020509e-05  -6.6115618157901505e-04  -1.6723341632632371e-03  -2.8332552664758004e-03  -3.9926131686310283e-03  -5.0145868066159317e-03  -5.7926917693095267e-03  -6.2585223926091976e-03  -6.3866699579432301e-03  -6.1931666920202648e-03  -5.7280595193878814e-03  -5.0640063486049863e-03  -4.2835894583178212e-03  -3.4677285510612971e-03  -2.6866760363250318e-03  -1.9940505044692826e-03  -1.4235833494499481e-03  -9.8786305443126577e-04  -6.7834191402375930e-04  -4.6612499608915137e-04  -3.0346928958045684e-04  -1.2632689206136215e-04  1.4154552265592763e-04  5.8265671523432465e-04  1.2786048901050270e-03  2.3033576765982017e-03  3.7193887082127711e-03  5.5784514166778787e-03  7.9265132935181972e-03  1.0809411799199370e-02  1.4274142482379156e-02  1.8362108765617204e-02  2.3094763568127390e-02  2.8456072511184573e-02  3.4377437612815927e-02  4.0729205073552315e-02  4.7321124404933392e-02  5.3913299427910386e-02  6.023777786721