<?xml version="1.0"?>
<VTKFile type="UnstructuredGrid"  version="0.1"  >
<UnstructuredGrid>
<Piece  NumberOfPoints="1089" NumberOfCells="1024">
<Points>
<DataArray  type="Float64"  NumberOfComponents="3"  format="ascii">0 0 0  0.03125 0 0  0.0625 0 0  0.09375 0 0  0.125 0 0  0.15625 0 0  0.1875 0 0  0.21875 0 0  0.25 0 0  0.28125 0 0  0.3125 0 0  0.34375 0 0  0.375 0 0  0.40625 0 0  0.4375 0 0  0.46875 0 0  0.5 0 0  0.53125 0 0  0.5625 0 0  0.59375 0 0  0.625 0 0  0.65625 0 0  0.6875 0 0  0.71875 0 0  0.75 0 0  0.78125 0 0  0.8125 0 0  0.84375 0 0  0.875 0 0  0.90625 0 0  0.9375 0 0  0.96875 0 0  1 0 0  0 0.03125 0  0.03125 0.03125 0  0.0625 0.03125 0  0.09375 0.03125 0  0.125 0.03125 0  0.15625 0.03125 0  0.1875 0.03125 0  0.21875 0.03125 0  0.25 0.03125 0  0.28125 0.03125 0  0.3125 0.03125 0  0.34375 0.03125 0  0.375 0.03125 0  0.40625 0.03125 0  0.4375 0.03125 0  0.46875 0.03125 0  0.5 0.03125 0  0.53125 0.03125 0  0.5625 0.03125 0  0.59375 0.03125 0  0.625 0.03125 0  0.65625 0.03125 0  0.6875 0.03125 0  0.71875 0.03125 0  0.75 0.03125 0  0.78125 0.03125 0  0.8125 0.03125 0  0.84375 0.03125 0  0.875 0.03125 0  0.90625 0.03125 0  0.9375 0.03125 0  0.96875 0.03125 0  1 0.03125 0  0 0.0625 0  0.03125 0.0625 0  0.0625 0.0625 0  0.09375 0.0625 0  0.125 0.0625 0  0.15625 0.0625 0  0.1875 0.0625 0  0.21875 0.0625 0  0.25 0.0625 0  0.28125 0.0625 0  0.3125 0.0625 0  0.34375 0.0625 0  0.375 0.0625 0  0.40625 0.0625 0  0.4375 0.0625 0  0.46875 0.0625 0  0.5 0.0625 0  0.53125 0.0625 0  0.5625 0.0625 0  0.59375 0.0625 0  0.625 0.0625 0  0.65625 0.0625 0  0.6875 0.0625 0  0.71875 0.0625 0  0.75 0.0625 0  0.78125 0.0625 0  0.8125 0.0625 0  0.84375 0.0625 0  0.875 0.0625 0  0.90625 0.0625 0  0.9375 0.0625 0  0.96875 0.0625 0  1 0.0625 0  0 0.09375 0  0.03125 0.09375 0  0.0625 0.09375 0  0.09375 0.09375 0  0.125 0.09375 0  0.15625 0.09375 0  0.1875 0.09375 0  0.21875 0.09375 0  0.25 0.09375 0  0.28125 0.09375 0  0.3125 0.09375 0  0.34375 0.09375 0  0.375 0.09375 0  0.40625 0.09375 0  0.4375 0.09375 0  0.46875 0.09375 0  0.5 0.09375 0  0.53125 0.09375 0  0.5625 0.09375 0  0.59375 0.09375 0  0.625 0.09375 0  0.65625 0.09375 0  0.6875 0.09375 0  0.71875 0.09375 0  0.75 0.09375 0  0.78125 0.09375 0  0.8125 0.09375 0  0.84375 0.09375 0  0.875 0.09375 0  0.90625 0.09375 0  0.9375 0.09375 0  0.96875 0.09375 0  1 0.09375 0  0 0.125 0  0.03125 0.125 0  0.0625 0.125 0  0.09375 0.125 0  0.125 0.125 0  0.15625 0.125 0  0.1875 0.125 0  0.21875 0.125 0  0.25 0.125 0  0.28125 0.125 0  0.3125 0.125 0  0.34375 0.125 0  0.375 0.125 0  0.40625 0.125 0  0.4375 0.125 0  0.46875 0.125 0  0.5 0.125 0  0.53125 0.125 0  0.5625 0.125 0  0.59375 0.125 0  0.625 0.125 0  0.65625 0.125 0  0.6875 0.125 0  0.71875 0.125 0  0.75 0.125 0  0.78125 0.125 0  0.8125 0.125 0  0.84375 0.125 0  0.875 0.125 0  0.90625 0.125 0  0.9375 0.125 0  0.96875 0.125 0  1 0.125 0  0 0.15625 0  0.03125 0.15625 0  0.0625 0.15625 0  0.09375 0.15625 0  0.125 0.15625 0  0.15625 0.15625 0  0.1875 0.15625 0  0.21875 0.15625 0  0.25 0.15625 0  0.28125 0.15625 0  0.3125 0.15625 0  0.34375 0.15625 0  0.375 0.15625 0  0.40625 0.15625 0  0.4375 0.15625 0  0.46875 0.15625 0  0.5 0.15625 0  0.53125 0.15625 0  0.5625 0.15625 0  0.59375 0.15625 0  0.625 0.15625 0  0.65625 0.15625 0  0.6875 0.15625 0  0.71875 0.15625 0  0.75 0.15625 0  0.78125 0.15625 0  0.8125 0.15625 0  0.84375 0.15625 0  0.875 0.15625 0  0.90625 0.15625 0  0.9375 0.15625 0  0.96875 0.15625 0  1 0.15625 0  0 0.1875 0  0.03125 0.1875 0  0.0625 0.1875 0  0.09375 0.1875 0  0.125 0.1875 0  0.15625 0.1875 0  0.1875 0.1875 0  0.21875 0.1875 0  0.25 0.1875 0  0.28125 0.1875 0  0.3125 0.1875 0  0.34375 0.1875 0  0.375 0.1875 0  0.40625 0.1875 0  0.4375 0.1875 0  0.46875 0.1875 0  0.5 0.1875 0  0.53125 0.1875 0  0.5625 0.1875 0  0.59375 0.1875 0  0.625 0.1875 0  0.65625 0.1875 0  0.6875 0.1875 0  0.71875 0.1875 0  0.75 0.1875 0  0.78125 0.1875 0  0.8125 0.1875 0  0.84375 0.1875 0  0.875 0.1875 0  0.90625 0.1875 0  0.9375 0.1875 0  0.96875 0.1875 0  1 0.1875 0  0 0.21875 0  0.03125 0.21875 0  0.0625 0.21875 0  0.09375 0.21875 0  0.125 0.21875 0  0.15625 0.21875 0  0.1875 0.21875 0  0.21875 0.21875 0  0.25 0.21875 0  0.28125 0.21875 0  0.3125 0.21875 0  0.34375 0.21875 0  0.375 0.21875 0  0.40625 0.21875 0  0.4375 0.21875 0  0.46875 0.21875 0  0.5 0.21875 0  0.53125 0.21875 0  0.5625 0.21875 0  0.59375 0.21875 0  0.625 0.21875 0  0.65625 0.21875 0  0.6875 0.21875 0  0.71875 0.21875 0  0.75 0.21875 0  0.78125 0.21875 0  0.8125 0.21875 0  0.84375 0.21875 0  0.875 0.21875 0  0.90625 0.21875 0  0.9375 0.21875 0  0.96875 0.21875 0  1 0.21875 0  0 0.25 0  0.03125 0.25 0  0.0625 0.25 0  0.09375 0.25 0  0.125 0.25 0  0.15625 0.25 0  0.1875 0.25 0  0.21875 0.25 0  0.25 0.25 0  0.28125 0.25 0  0.3125 0.25 0  0.34375 0.25 0  0.375 0.25 0  0.40625 0.25 0  0.4375 0.25 0  0.46875 0.25 0  0.5 0.25 0  0.53125 0.25 0  0.5625 0.25 0  0.59375 0.25 0  0.625 0.25 0  0.65625 0.25 0  0.6875 0.25 0  0.71875 0.25 0  0.75 0.25 0  0.78125 0.25 0  0.8125 0.25 0  0.84375 0.25 0  0.875 0.25 0  0.90625 0.25 0  0.9375 0.25 0  0.96875 0.25 0  1 0.25 0  0 0.28125 0  0.03125 0.28125 0  0.0625 0.28125 0  0.09375 0.28125 0  0.125 0.28125 0  0.15625 0.28125 0  0.1875 0.28125 0  0.21875 0.28125 0  0.25 0.28125 0  0.28125 0.28125 0  0.3125 0.28125 0  0.34375 0.28125 0  0.375 0.28125 0  0.40625 0.28125 0  0.4375 0.28125 0  0.46875 0.28125 0  0.5 0.28125 0  0.53125 0.28125 0  0.5625 0.28125 0  0.59375 0.28125 0  0.625 0.28125 0  0.65625 0.28125 0  0.6875 0.28125 0  0.71875 0.28125 0  0.75 0.28125 0  0.78125 0.28125 0  0.8125 0.28125 0  0.84375 0.28125 0  0.875 0.28125 0  0.90625 0.28125 0  0.9375 0.28125 0  0.96875 0.28125 0  1 0.28125 0  0 0.3125 0  0.03125 0.3125 0  0.0625 0.3125 0  0.09375 0.3125 0  0.125 0.3125 0  0.15625 0.3125 0  0.1875 0.3125 0  0.21875 0.3125 0  0.25 0.3125 0  0.28125 0.3125 0  0.3125 0.3125 0  0.34375 0.3125 0  0.375 0.3125 0  0.40625 0.3125 0  0.4375 0.3125 0  0.46875 0.3125 0  0.5 0.3125 0  0.53125 0.3125 0  0.5625 0.3125 0  0.59375 0.3125 0  0.625 0.3125 0  0.65625 0.3125 0  0.6875 0.3125 0  0.71875 0.3125 0  0.75 0.3125 0  0.78125 0.3125 0  0.8125 0.3125 0  0.84375 0.3125 0  0.875 0.3125 0  0.90625 0.3125 0  0.9375 0.3125 0  0.96875 0.3125 0  1 0.3125 0  0 0.34375 0  0.03125 0.34375 0  0.0625 0.34375 0  0.09375 0.34375 0  0.125 0.34375 0  0.15625 0.34375 0  0.1875 0.34375 0  0.21875 0.34375 0  0.25 0.34375 0  0.28125 0.34375 0  0.3125 0.34375 0  0.34375 0.34375 0  0.375 0.34375 0  0.40625 0.34375 0  0.4375 0.34375 0  0.46875 0.34375 0  0.5 0.34375 0  0.53125 0.34375 0  0.5625 0.34375 0  0.59375 0.34375 0  0.625 0.34375 0  0.65625 0.34375 0  0.6875 0.34375 0  0.71875 0.34375 0  0.75 0.34375 0  0.78125 0.34375 0  0.8125 0.34375 0  0.84375 0.34375 0  0.875 0.34375 0  0.90625 0.34375 0  0.9375 0.34375 0  0.96875 0.34375 0  1 0.34375 0  0 0.375 0  0.03125 0.375 0  0.0625 0.375 0  0.09375 0.375 0  0.125 0.375 0  0.15625 0.375 0  0.1875 0.375 0  0.21875 0.375 0  0.25 0.375 0  0.28125 0.375 0  0.3125 0.375 0  0.34375 0.375 0  0.375 0.375 0  0.40625 0.375 0  0.4375 0.375 0  0.46875 0.375 0  0.5 0.375 0  0.53125 0.375 0  0.5625 0.375 0  0.59375 0.375 0  0.625 0.375 0  0.65625 0.375 0  0.6875 0.375 0  0.71875 0.375 0  0.75 0.375 0  0.78125 0.375 0  0.8125 0.375 0  0.84375 0.375 0  0.875 0.375 0  0.90625 0.375 0  0.9375 0.375 0  0.96875 0.375 0  1 0.375 0  0 0.40625 0  0.03125 0.40625 0  0.0625 0.40625 0  0.09375 0.40625 0  0.125 0.40625 0  0.15625 0.40625 0  0.1875 0.40625 0  0.21875 0.40625 0  0.25 0.40625 0  0.28125 0.40625 0  0.3125 0.40625 0  0.34375 0.40625 0  0.375 0.40625 0  0.40625 0.40625 0  0.4375 0.40625 0  0.46875 0.40625 0  0.5 0.40625 0  0.53125 0.40625 0  0.5625 0.40625 0  0.59375 0.40625 0  0.625 0.40625 0  0.65625 0.40625 0  0.6875 0.40625 0  0.71875 0.40625 0  0.75 0.40625 0  0.78125 0.40625 0  0.8125 0.40625 0  0.84375 0.40625 0  0.875 0.40625 0  0.90625 0.40625 0  0.9375 0.40625 0  0.96875 0.40625 0  1 0.40625 0  0 0.4375 0  0.03125 0.4375 0  0.0625 0.4375 0  0.09375 0.4375 0  0.125 0.4375 0  0.15625 0.4375 0  0.1875 0.4375 0  0.21875 0.4375 0  0.25 0.4375 0  0.28125 0.4375 0  0.3125 0.4375 0  0.34375 0.4375 0  0.375 0.4375 0  0.40625 0.4375 0  0.4375 0.4375 0  0.46875 0.4375 0  0.5 0.4375 0  0.53125 0.4375 0  0.5625 0.4375 0  0.59375 0.4375 0  0.625 0.4375 0  0.65625 0.4375 0  0.6875 0.4375 0  0.71875 0.4375 0  0.75 0.4375 0  0.78125 0.4375 0  0.8125 0.4375 0  0.84375 0.4375 0  0.875 0.4375 0  0.90625 0.4375 0  0.9375 0.4375 0  0.96875 0.4375 0  1 0.4375 0  0 0.46875 0  0.03125 0.46875 0  0.0625 0.46875 0  0.09375 0.46875 0  0.125 0.46875 0  0.15625 0.46875 0  0.1875 0.46875 0  0.21875 0.46875 0  0.25 0.46875 0  0.28125 0.46875 0  0.3125 0.46875 0  0.34375 0.46875 0  0.375 0.46875 0  0.40625 0.46875 0  0.4375 0.46875 0  0.46875 0.46875 0  0.5 0.46875 0  0.53125 0.46875 0  0.5625 0.46875 0  0.59375 0.46875 0  0.625 0.46875 0  0.65625 0.46875 0  0.6875 0.46875 0  0.71875 0.46875 0  0.75 0.46875 0  0.78125 0.46875 0  0.8125 0.46875 0  0.84375 0.46875 0  0.875 0.46875 0  0.90625 0.46875 0  0.9375 0.46875 0  0.96875 0.46875 0  1 0.46875 0  0 0.5 0  0.03125 0.5 0  0.0625 0.5 0  0.09375 0.5 0  0.125 0.5 0  0.15625 0.5 0  0.1875 0.5 0  0.21875 0.5 0  0.25 0.5 0  0.28125 0.5 0  0.3125 0.5 0  0.34375 0.5 0  0.375 0.5 0  0.40625 0.5 0  0.4375 0.5 0  0.46875 0.5 0  0.5 0.5 0  0.53125 0.5 0  0.5625 0.5 0  0.59375 0.5 0  0.625 0.5 0  0.65625 0.5 0  0.6875 0.5 0  0.71875 0.5 0  0.75 0.5 0  0.78125 0.5 0  0.8125 0.5 0  0.84375 0.5 0  0.875 0.5 0  0.90625 0.5 0  0.9375 0.5 0  0.96875 0.5 0  1 0.5 0  0 0.53125 0  0.03125 0.53125 0  0.0625 0.53125 0  0.09375 0.53125 0  0.125 0.53125 0  0.15625 0.53125 0  0.1875 0.53125 0  0.21875 0.53125 0  0.25 0.53125 0  0.28125 0.53125 0  0.3125 0.53125 0  0.34375 0.53125 0  0.375 0.53125 0  0.40625 0.53125 0  0.4375 0.53125 0  0.46875 0.53125 0  0.5 0.53125 0  0.53125 0.53125 0  0.5625 0.53125 0  0.59375 0.53125 0  0.625 0.53125 0  0.65625 0.53125 0  0.6875 0.53125 0  0.71875 0.53125 0  0.75 0.53125 0  0.78125 0.531
[...]
<PointData  Scalars="u_sol"> 
<DataArray  type="Float64"  Name="u_sol"  format="ascii">-4.4161749181362204e-05  -8.3576007260422475e-05  3.2265256016571052e-04  8.0947295131280034e-04  1.0403144069365319e-03  1.1622626529049457e-03  1.6975311164111591e-03  3.0047694376028047e-03  4.4324230108237044e-03  7.3538066578188177e-03  1.4447056658861104e-02  2.1330138614376604e-02  2.0711688555275463e-02  1.1707433607251112e-02  -1.5737054184455474e-03  -1.3803243476032172e-02  -2.0416806303782228e-02  -1.8182181891047131e-02  -6.2969860241743033e-03  1.3133352985525848e-02  3.5295512144982930e-02  5.3943930408546795e-02  5.9975948966055313e-02  4.7037815011255618e-02  2.5865047126948933e-02  8.9389941028214064e-03  2.3422342601572686e-04  -1.2318818764316497e-03  -8.9852122922893444e-04  -6.2018107630256868e-04  -4.0372298083029721e-04  -1.8653102061501114e-04  1.6956529497683866e-05  -2.8700702191571131e-04  1.3785204891935800e-03  5.3400521662088649e-03  9.0812021141514262e-03  1.1059414308104892e-02  1.1627148516596396e-02  1.1643559505962997e-02  1.1480152053415316e-02  6.2010315923437375e-03  -1.2152957990161410e-02  -4.5665386804723741e-02  -8.8084689402981795e-02  -1.2977927684895391e-01  -1.6389704025161647e-01  -1.8678050272889821e-01  -1.9668974903501832e-01  -1.9311435986167300e-01  -1.7654114250459854e-01  -1.4790855746673309e-01  -1.0881215020284223e-01  -6.2274237422453006e-02  -1.3683778245384155e-02  3.0836537215908663e-02  6.3600999785006732e-02  7.3581448042254652e-02  6.3585490086921714e-02  4.5344723463506605e-02  2.6601395966433957e-02  1.3361523450660238e-02  5.7412623410810189e-03  1.8028739648957989e-03  1.9856308328103587e-04  -6.7700406055258677e-05  -5.5917956873356906e-04  2.7424451910931487e-03  8.7082043687347448e-03  1.2520307483091670e-02  1.2408252642108403e-02  1.0116346132350297e-02  2.7742595558901653e-03  -2.2013583311523616e-02  -6.7189195137318386e-02  -1.2301250984494486e-01  -1.8003209596143435e-01  -2.3100840971970277e-01  -2.7176539723778331e-01  -3.0111230810294926e-01  -3.1951092899470218e-01  -3.2786617878231966e-01  -3.2663045414693115e-01  -3.1552820319832553e-01  -2.9408019943104030e-01  -2.6191838782045984e-01  -2.1911903574097130e-01  -1.6702227692718419e-01  -1.0930324392099072e-01  -5.1537958024491452e-02  -1.7274448367874103e-03  2.7188640934092515e-02  3.5090626290506362e-02  3.1706429981247022e-02  2.2173567283611296e-02  1.2484186328085168e-02  5.5872755646720462e-03  1.3462601896311616e-03  -2.4702728080317447e-04  -8.4916936645070213e-04  4.4068138525170690e-03  1.1241728300185952e-02  1.1072753244586819e-02  5.5586992489742356e-03  -1.0626742069671831e-02  -5.0002018420302115e-02  -1.0948446682815922e-01  -1.7601793336084851e-01  -2.3911237012163056e-01  -2.9230896240683985e-01  -3.3389883482254423e-01  -3.6469250205235132e-01  -3.8620596937201412e-01  -3.9982347913725313e-01  -4.0653230026533571e-01  -4.0703349897827151e-01  -4.0174249353138203e-01  -3.9016953947052446e-01  -3.7072905105564308e-01  -3.4099416840371560e-01  -2.9827065319551099e-01  -2.4105372964551147e-01  -1.7167039814853260e-01  -9.8079317371922201e-02  -3.3749989511266475e-02  3.5230580119257650e-03  1.6174642220021219e-02  1.8567779665639526e-02  1.4335190849843868e-02  7.7424655274054869e-03  2.2519332969123608e-03  -3.5721801024545143e-04  -9.3254331442976356e-04  6.1034372209872352e-03  1.0059070810921418e-02  2.3872712399918162e-03  -1.9645116868236952e-02  -6.5492633105355025e-02  -1.3107199668128311e-01  -2.0177006272741749e-01  -2.6587152766324817e-01  -3.1729169490617387e-01  -3.5516591104655743e-01  -3.8135514036523388e-01  -3.9842402285854306e-01  -4.0879480005453250e-01  -4.1458734875241138e-01  -4.1750992896389327e-01  -4.1868732188299784e-01  -4.1856557266550715e-01  -4.1691150453242570e-01  -4.1247014858309100e-01  -4.0243253393780165e-01  -3.8211716578893185e-01  -3.4563589628015617e-01  -2.8820073634664201e-01  -2.1032272567711621e-01  -1.2214119222256777e-01  -4.3271063298716411e-02  -9.2200397480993288e-04  9.4828378684459289e-03  1.0871690509874483e-02  7.6657016016224225e-03  2.5253406883708075e-03  -4.7411118680216774e-04  -3.3673723592342759e-04  5.8898246454807662e-03  1.9334896386462431e-03  -2.1803815150555638e-02  -6.7598357580335236e-02  -1.3339983501202890e-01  -2.0445677763833583e-01  -2.6744711649178438e-01  -3.1568315854052897e-01  -3.4840378583010079e-01  -3.6821118047179180e-01  -3.7876620992812710e-01  -3.8362955458524955e-01  -3.8563967345061284e-01  -3.8662156298698058e-01  -3.8750109342262379e-01  -3.8867127437552379e-01  -3.9034225857044980e-01  -3.9274536753130623e-01  -3.9592925578833849e-01  -3.9900983656106892e-01  -3.9904085253478583e-01  -3.8994178635487070e-01  -3.6294695636272634e-01  -3.0985346340782344e-01  -2.2889365565772971e-01  -1.3147492193287869e-01  -4.2069227857805001e-02  8.0390766670533664e-04  6.7691263239572285e-03  6.1573413366382427e-03  1.7948355647795654e-03  -2.0029862943699538e-04  1.1892291726810255e-03  1.6020325484692420e-03  -1.7533657456675577e-02  -5.9461709153707701e-02  -1.2069278208624235e-01  -1.8968311320960815e-01  -2.5124441017972282e-01  -2.9715455139321240e-01  -3.2606911071368477e-01  -3.4112741937606617e-01  -3.4716073541275694e-01  -3.4882078885980849e-01  -3.4933460905105568e-01  -3.5013188258625100e-01  -3.5139094134565524e-01  -3.5285509521678188e-01  -3.5432270427591933e-01  -3.5576736085278993e-01  -3.5742086215846641e-01  -3.5983794128141033e-01  -3.6378491664013107e-01  -3.6961788762180525e-01  -3.7556695623177216e-01  -3.7532093316589382e-01  -3.5747610410924985e-01  -3.0979476644659809e-01  -2.2778178178708852e-01  -1.2452306951508703e-01  -3.0874046519440406e-02  4.1098733602512394e-03  2.8697979620346484e-03  2.9100854651037920e-03  -7.5783279301373785e-04  2.5942258629499974e-03  -8.2444414955988830e-03  -4.3650018138459271e-02  -9.7591757065478457e-02  -1.6213325262841183e-01  -2.2249035722487795e-01  -2.6794000209776214e-01  -2.9563315492889974e-01  -3.0862358359165415e-01  -3.1269480310876091e-01  -3.1350562943227073e-01  -3.1456479300257317e-01  -3.1681855046405294e-01  -3.1977396922484413e-01  -3.2274449935063976e-01  -3.2533590540800750e-01  -3.2743706657174926e-01  -3.2910525368656246e-01  -3.3036610963559471e-01  -3.3121318007232958e-01  -3.3191594126948493e-01  -3.3346108422104170e-01  -3.3756673554517075e-01  -3.4468826064387226e-01  -3.4947751063533627e-01  -3.3805537818113818e-01  -2.9343721529636374e-01  -2.0901611856463306e-01  -1.0072723158257067e-01  -1.3469138953203124e-02  8.0997981562053994e-03  -4.6139058112787135e-04  3.5022699812413925e-04  2.9314858241139782e-03  -2.0566009437566857e-02  -6.7403363740829558e-02  -1.2539098054969727e-01  -1.8416868712207438e-01  -2.3090138418197134e-01  -2.6015354016257408e-01  -2.7373968995913189e-01  -2.7774384730635232e-01  -2.7870580784520205e-01  -2.8056991394988345e-01  -2.8395570782775620e-01  -2.8783975924464245e-01  -2.9135721179407026e-01  -2.9429416978514072e-01  -2.9681475108984362e-01  -2.9914527966217092e-01  -3.0143071929150905e-01  -3.0367165215377945e-01  -3.0564222482474490e-01  -3.0686360512627048e-01  -3.0685468443995956e-01  -3.0607009844228156e-01  -3.0705547863294519e-01  -3.1284009779532412e-01  -3.1964193981265754e-01  -3.1085140260898558e-01  -2.6431699487331295e-01  -1.7449279529229716e-01  -6.1854636968026844e-02  -1.4680526204249514e-04  2.9524569113505489e-03  3.3187046623518068e-04  2.9835040705343996e-03  -3.0289301179041748e-02  -8.2773877831832862e-02  -1.3813290364581035e-01  -1.8690735560759497e-01  -2.2001493434852987e-01  -2.3678957992575347e-01  -2.4237798267554800e-01  -2.4390763212294553e-01  -2.4619027304004490e-01  -2.5005899940578596e-01  -2.5417916798723705e-01  -2.5754626143829801e-01  -2.6014080612720625e-01  -2.6236661360866798e-01  -2.6456003307860243e-01  -2.6688542024074002e-01  -2.6939206302634833e-01  -2.7211485714338651e-01  -2.7507523895530600e-01  -2.7808824672782667e-01  -2.8046964017385750e-01  -2.8099571755124753e-01  -2.7913243370358454e-01  -2.7765598035943706e-01  -2.8193652693471388e-01  -2.8912483356451768e-01  -2.7838624225492620e-01  -2.2333541877953833e-01  -1.2463734170058115e-01  -1.9531482466472683e-02  1.2844768597852730e-02  -3.7661752769954262e-03  2.8698361462335315e-03  -3.5132147085126166e-02  -8.7670229955527132e-02  -1.3647617101035439e-01  -1.7459334113609726e-01  -1.9679115077093531e-01  -2.0595074720310053e-01  -2.0876196985768120e-01  -2.1120827994168531e-01  -2.1517399957340241e-01  -2.1943830968089439e-01  -2.2278106948037096e-01  -2.2525504548312417e-01  -2.2745340896647909e-01  -2.2973548659230913e-01  -2.3214824684318622e-01  -2.3463977600229347e-01  -2.3718388335813098e-01  -2.3979749218096494e-01  -2.4255788746037360e-01  -2.4561584101644002e-01  -2.4904131287919279e-01  -2.5226021097647916e-01  -2.5349405028420724e-01  -2.5115406596380119e-01  -2.4826125709360489e-01  -2.5218124986426582e-01  -2.5857553059737570e-01  -2.3948815427705908e-01  -1.6935370743871939e-01  -5.9806684353188658e-02  -2.2970947376335679e-03  -2.2007318926813672e-03  2.7495338930238092e-03  -3.4731401875584232e-02  -8.3160072634476306e-02  -1.2380281861924028e-01  -1.5257509716996401e-01  -1.6732414497757950e-01  -1.7293410126913941e-01  -1.7581375965671986e-01  -1.7963568171249045e-01  -1.8407452193710519e-01  -1.8770293711421801e-01  -1.9034701179633773e-01  -1.9270604340957226e-01  -1.9522542876268770e-01  -1.9789434583523172e-01  -2.0059500141916950e-01  -2.0328342454021447e-01  -2.0597067549903628e-01  -2.0865989744570745e-01  -2.1132156441022332e-01  -2.1396239066200204e-01  -2.1676502540403811e-01  -2.2007473601399166e-01  -2.2356734514706142e-01  -2.2497206354346269e-01  -2.2188861484011049e-01  -2.1857360475090704e-01  -2.2375793185479956e-01  -2.2600233256014018e-01  -1.9014979057234355e-01  -9.8683794314359238e-02  -1.1680423082113164e-02  6.3346233084510704e-03  2.6911332436360775e-03  -2.9988755503344091e-02  -7.1722241745561188e-02  -1.0405973757437607e-01  -1.2544324404979260e-01  -1.3569994933636981e-01  -1.4018202481544514e-01  -1.4387322227240035e-01  -1.4831746414468555e-01  -1.5240133394670996e-01  -1.5543679157417969e-01  -1.5797412903953936e-01  -1.6061762140516606e-01  -1.6340455823374356e-01  -1.6617953809569916e-01  -1.6891971466581351e-01  -1.7168655468059824e-01  -1.7452060816103909e-01  -1.7742428623732440e-01  -1.8036098078272991e-01  -1.8323382123332824e-01  -1.8593030010816616e-01  -1.8857265666656547e-01  -1.9172352948680207e-01  -1.9519467929733497e-01  -1.9596514233703718e-01  -1.9153994466875399e-01  -1.8948360016583252e-01  -1.9634712848541350e-01  -1.8611632898853328e-01  -1.2192368454773800e-01  -1.5971392852486020e-02  1.5408213286024392e-02  2.7014137956372186e-03  -2.2248899297252236e-02  -5.5922888501305598e-02  -8.0535153764123235e-02  -9.6336720887467212e-02  -1.0403794970342896e-01  -1.0835573759071471e-01  -1.1255372052089585e-01  -1.1691643236135034e-01  -1.2048752743881715e-01  -1.2327739679802920e-01  -1.2594496553018864e-01  -1.2873805423997922e-01  -1.3151583831460259e-01  -1.3422957069511482e-01  -1.3696698527302606e-01  -1.3979742093874445e-01  -1.4274202253396723e-01  -1.4580272152578638e-01  -1.4896930857756283e-01  -1.5219804372442311e-01  -1.5536244021405796e-01  -1.5825326836117345e-01  -1.6093596134913057e-01  -1.6415962864876624e-01  -1.6742381609410176e-01  -1.6646965073642506e-01  -1.6091282288492367e-01  -1.6304932760002164e-01  -1.6614501695047967e-01  -1.2895592910099093e-01  -3.0981025384092677e-02  1.5139755531736099e-02  2.7526965370313805e-03  -1.2700153347552368e-02  -3.7799186116481323e-02  -5.5467822732327463e-02  -6.6982790832026878e-02  -7.3147884563707563e-02  -7.7397955752294023e-02  -8.1592607216980195e-02  -8.5532433907025252e-02  -8.8695960749595251e-02  -9.1398604211824996e-02  -9.4101942922485290e-02  -9.6829885051622530e-02  -9.9494351332490322e-02  -1.0216461369759199e-01  -1.0493901777582304e-01  -1.0785156803891258e-01  -1.1091033852535209e-01  -1.1412024829482331e-01  -1.1747673055702551e-01  -1.2095969006253897e-01  -1.2451568703670880e-01  -1.2800196399084673e-01  -1.3114810036716543e-01  -1.3408135532711044e-01  -1.3768308235399065e-01  -1.4017610118743126e-01  -1.3632927370948206e-01  -1.3308696287113153e-01  -1.3987907408260286e-01  -1.2513084860323986e-01  -4.8094737554928484e-02  1.0577168432629494e-02  2.8134945124269253e-03  -2.3744166439481555e-03  -1.8741816525481618e-02  -3.0120660204705479e-02  -3.8149402763842925e-02  -4.3137830156102341e-02  -4.7118884869129490e-02  -5.0923831540723691e-02  -5.4325736800359313e-02  -5.7154959072067781e-02  -5.9733828585009564e-02  -6.2307838465808195e-02  -6.4860947074636965e-02  -6.7401134010632316e-02  -7.0029629665429277e-02  -7.2815911602580205e-02  -7.5784803099318579e-02  -7.8955092197738191e-02  -8.2337260196743048e-02  -8.5926196312142447e-02  -8.9705891464992915e-02  -9.3635251246253201e-02  -9.7629523105959334e-02  -1.0152392454030003e-01  -1.0502926186832816e-01  -1.0855481502868070e-01  -1.1267340937599690e-01  -1.1281581561492174e-01  -1.0771242338163316e-01  -1.1285086418518531e-01  -1.1399848779787064e-01  -5.9573829033032995e-02  6.0656530453102910e-03  2.1935196797180185e-03  7.5924764005494529e-03  7.3937885649781794e-04  -5.2766200529270404e-03  -9.9294531771320308e-03  -1.3890369353505428e-02  -1.7343591859158795e-02  -2.0545774664423231e-02  -2.3363251238222620e-02  -2.5843691924222069e-02  -2.8189048861470296e-02  -3.0514901660833364e-02  -3.2838442721366330e-02  -3.5224287686041161e-02  -3.7762108977729358e-02  -4.0506972733347003e-02  -4.3497056292936369e-02  -4.6766930048604279e-02  -5.0333696161186901e-02  -5.4192338118128305e-02  -5.8326521942423007e-02  -6.2712433681303609e-02  -6.7270932478772541e-02  -7.1881011210797818e-02  -7.6361111367655804e-02  -8.0486329494870293e-02  -8.5160013827900879e-02  -8.8849017680966702e-02  -8.5507579381298215e-02  -8.7713431099646896e-02  -9.7589060160312657e-02  -6.2716333190672602e-02  2.7779370744107921e-03  1.1915642526070668e-03  1.6788208008663003e-02  1.9847946497030679e-02  1.8945027838990516e-02  1.7769856021274733e-02  1.4856655408266195e-02  1.2043674426761714e-02  9.5450308445636876e-03  7.3811469321090782e-03  5.3144079544849452e-03  3.2928411184741323e-03  1.3011109057864797e-03  -7.3317737355335178e-04  -2.9067551213743641e-03  -5.2901884174725005e-03  -7.9428814085765083e-03  -1.0921980443883044e-02  -1.4271954733421978e-02  -1.8020296480327522e-02  -2.2171724382821102e-02  -2.6711869949226325e-02  -3.1616823281084797e-02  -3.6840509407739169e-02  -4.2249486418795903e-02  -4.7747973276550455e-02  -5.3085992102676977e-02  -5.8394052613673676e-02  -6.4364143020560663e-02  -6.4756776966664917e-02  -6.5129216918202240e-02  -7.8633637540616502e-02  -5.9482947852971424e-02  5.4179238054494845e-04  -5.3906712075590694e-05  2.4464972177188321e-02  3.8083053943354116e-02  4.2519049053569673e-02  4.4911298301676575e-02  4.3416950004907896e-02  4.1184388543456345e-02  3.9399455692390443e-02  3.7942072682626789e-02  3.6393681681517485e-02  3.4764305264870482e-02  3.3169900206191101e-02  3.1503695155062204e-02  2.9620489481716663e-02  2.7454896720085990e-02  2.4947523315038467e-02  2.2021856076619235e-02  1.8618727618823615e-02  1.4701873281252224e-02  1.0252251622414034e-02  5.2692071833113918e-03  -2.2507171428822967e-04  -6.1826935048247874e-03  -1.2521468651171061e-02  -1.9106250264987384e-02  -2.5889397151264391e-02  -3.2430885574755902e-02  -3.9843390892588669e-02  -4.4350243900304197e-02  -4.4981052543894035e-02  -5.9640079907156203e-02  -5.2742129517488814e-02  -1.0558364298840883e-03  -1.6352712214442783e-03  2.9564343289739437e-02  5.4701772659370346e-02  6.5299721693980808e-02  7.1459014433556275e-02  7.1943476846654530e-02  7.0279177615116942e-02  6.9074520475197493e-02  6.8339143079715448e-02  6.7433008157650728e-02  6.6287773160131055e-02  6.5133482752088467e-02  6.3914781124861542e-02  6.2427458247116416e-02  6.0563110875449341e-02  5.8260164880782089e-02  5.5439422976107780e-02  5.2024635048758497e-02  4.7961325010631758e-02  4.3213468194195880e-02  3.7765070790030789e-02  3.1629073733986553e-02  2.4862502837417488e-02  1.7503173792012244e-02  9.6686494010683049e-03  1.3831543377913595e-03  -6.9384469062750056e-03  -1.5652278365185814e-02  -2.3857132057425380e-02  -2.6754264000425007e-02  -4.2179565115217477e-02  -4.4844011496928862e-02  -2.3105001889058086e-03  -3.5728252640022055e-03  3.0942413838610197e-02  6.8526928070059043e-02  8.6886867887425140e-02  9.7229444028040082e-02  1.0040328979865779e-01  9.9527254060891010e-02  9.8645280695527873e-02  9.8552258496439324e-02  9.8419733439997506e-02  9.7911638894936981e-02  9.7258758787573951e-02  9.6541233955624167e-02  9.5560286654680776e-02  9.4121404367855127e-02  9.2119323394439706e-02  8.9470426090322130e-02  8.6091291030583869e-02  8.1909989037441899e-02  7.6869257156615661e-02  7.0939501318826023e-02  6.4138057185609512e-02  5.6497110758989694e-02  4.8034777353450603e-02  3.8784841039503096e-02  2.8906537882286556e-02  1.8504002752898145e-02  8.1704728633488245e-03  -3.2091937016131026e-03  -9.8954010191791009e-03  -2.6865045685557511e-02  -3.7179689166324109e-02  -3.4065903785784443e-03  -5.7240230940518461e-03  2.8050514428352786e-02  7.8031376427433116e-02  1.0630704582327367e-01  1.2184227464305852e-01  1.2842755054875099e-01  1.2899292743710467e-01  1.2826201387247091e-01  1.2854198264617536e-01  1.2924869855948862e-01  1.2961638055214275e-01  1.2963553511900450e-01  1.2948055097776856e-01  1.2906997709724541e-01  1.2817470588208738e-01  1.2660464338174401e-01  1.2423352906579040e-01  1.2096174673470302e-01  1.1670261586477226e-01  1.1139012304469990e-01  1.0499470712903029e-01  9.7521316919028281e-02  8.8962180145518752e-02  7.9288251133927470e-02  6.8513512405594904e-02  5.6848597959993391e-02  4.4345784779934741e-02  3.1813779888852325e-02  1.7588758285879458e-02  6.1193459812149313e-03  -1.3732992678857385e-02  -3.0408733827644738e-02  -4.4681048459750353e-03  -7.2904765445252180e-03  2.1800032806062405e-02  8.1515074975617330e-02  1.2179584955050592e-01  1.4429882765796512e-01  1.5526573674564922e-01  1.5833792243728861e-01  1.5808895523330097e-01  1.5837697290836802e-01  1.5974779691007718e-01  1.6122182012138092e-01  1.6226592663950928e-01  1.6289614852905035e-01  1.6314234015358881e-01  1.6285581800237250e-01  1.6181512800160491e-01  1.5983092584435332e-01  1.5676384297844734e-01  1.5250919878423511e-01  1.4699497851033971e-01  1.4018277912274868e-01  1.3203970258538167e-01  1.2249791393112575e-01  1.1150328648730531e-01  9.9118316095196099e-02  8.5518909842815322e-02  7.0901412166636188e-02  5.5746224191306266e-02  3.8629750254243415e-02  2.1549315264009404e-02  -2.4467265327529379e-03  -2.4852563805515239e-02  -5.5326969761975752e-03  -6.9474651679448784e-03  1.4903932022775790e-02  7.7102159385814800e-02  1.3028177405725516e-01  1.6266196984250533e-01  1.7956585831882052e-01  1.8654946221528032e-01  1.8794787144665170e-01  1.8831839989599319e-01  1.8992593713983369e-01  1.9243491162068907e-01  1.9487357807640313e-01  1.9676135621257507e-01  1.9799072426640393e-01  1.9848010977057573e-01  1.9806822647133648e-01  1.9656203434659344e-01  1.9379294389301965e-01  1.8963408728135572e-01  1.8399180251372382e-01  1.7678722157323384e-01  1.6792550174887835e-01  1.5731171577760436e-01  1.4493852813595923e-01  1.3089390732499923e-01  1.1534140744147510e-01  9.8491931316521716e-02  8.0598041320971231e-02  5.9907617680250637e-02  3.6631701290025881e-02  7.3636973803038889e-03  -2.0814938258312557e-02  -6.4189035877330455e-03  -3.6094271387732868e-03  9.4772439393190563e-03  6.3496684465821171e-02  1.2816037467518807e-01  1.7321055213856260e-01  1.9908798613788950e-01  2.1179991386328795e-01  2.1672852337257670e-01  2.1837944352065061e-01  2.2021888567994602e-01  2.2334373590338305e-01  2.2712364832613965e-01  2.3064980792715739e-01  2.3338357082144873e-01  2.3507935764436150e-01  2.3557954111286383e-01  2.34