<?xml version="1.0"?>
<VTKFile type="UnstructuredGrid"  version="0.1"  >
<UnstructuredGrid>
<Piece  NumberOfPoints="1089" NumberOfCells="1024">
<Points>
<DataArray  type="Float64"  NumberOfComponents="3"  format="ascii">0 0 0  0.03125 0 0  0.0625 0 0  0.09375 0 0  0.125 0 0  0.15625 0 0  0.1875 0 0  0.21875 0 0  0.25 0 0  0.28125 0 0  0.3125 0 0  0.34375 0 0  0.375 0 0  0.40625 0 0  0.4375 0 0  0.46875 0 0  0.5 0 0  0.53125 0 0  0.5625 0 0  0.59375 0 0  0.625 0 0  0.65625 0 0  0.6875 0 0  0.71875 0 0  0.75 0 0  0.78125 0 0  0.8125 0 0  0.84375 0 0  0.875 0 0  0.90625 0 0  0.9375 0 0  0.96875 0 0  1 0 0  0 0.03125 0  0.03125 0.03125 0  0.0625 0.03125 0  0.09375 0.03125 0  0.125 0.03125 0  0.15625 0.03125 0  0.1875 0.03125 0  0.21875 0.03125 0  0.25 0.03125 0  0.28125 0.03125 0  0.3125 0.03125 0  0.34375 0.03125 0  0.375 0.03125 0  0.40625 0.03125 0  0.4375 0.03125 0  0.46875 0.03125 0  0.5 0.03125 0  0.53125 0.03125 0  0.5625 0.03125 0  0.59375 0.03125 0  0.625 0.03125 0  0.65625 0.03125 0  0.6875 0.03125 0  0.71875 0.03125 0  0.75 0.03125 0  0.78125 0.03125 0  0.8125 0.03125 0  0.84375 0.03125 0  0.875 0.03125 0  0.90625 0.03125 0  0.9375 0.03125 0  0.96875 0.03125 0  1 0.03125 0  0 0.0625 0  0.03125 0.0625 0  0.0625 0.0625 0  0.09375 0.0625 0  0.125 0.0625 0  0.15625 0.0625 0  0.1875 0.0625 0  0.21875 0.0625 0  0.25 0.0625 0  0.28125 0.0625 0  0.3125 0.0625 0  0.34375 0.0625 0  0.375 0.0625 0  0.40625 0.0625 0  0.4375 0.0625 0  0.46875 0.0625 0  0.5 0.0625 0  0.53125 0.0625 0  0.5625 0.0625 0  0.59375 0.0625 0  0.625 0.0625 0  0.65625 0.0625 0  0.6875 0.0625 0  0.71875 0.0625 0  0.75 0.0625 0  0.78125 0.0625 0  0.8125 0.0625 0  0.84375 0.0625 0  0.875 0.0625 0  0.90625 0.0625 0  0.9375 0.0625 0  0.96875 0.0625 0  1 0.0625 0  0 0.09375 0  0.03125 0.09375 0  0.0625 0.09375 0  0.09375 0.09375 0  0.125 0.09375 0  0.15625 0.09375 0  0.1875 0.09375 0  0.21875 0.09375 0  0.25 0.09375 0  0.28125 0.09375 0  0.3125 0.09375 0  0.34375 0.09375 0  0.375 0.09375 0  0.40625 0.09375 0  0.4375 0.09375 0  0.46875 0.09375 0  0.5 0.09375 0  0.53125 0.09375 0  0.5625 0.09375 0  0.59375 0.09375 0  0.625 0.09375 0  0.65625 0.09375 0  0.6875 0.09375 0  0.71875 0.09375 0  0.75 0.09375 0  0.78125 0.09375 0  0.8125 0.09375 0  0.84375 0.09375 0  0.875 0.09375 0  0.90625 0.09375 0  0.9375 0.09375 0  0.96875 0.09375 0  1 0.09375 0  0 0.125 0  0.03125 0.125 0  0.0625 0.125 0  0.09375 0.125 0  0.125 0.125 0  0.15625 0.125 0  0.1875 0.125 0  0.21875 0.125 0  0.25 0.125 0  0.28125 0.125 0  0.3125 0.125 0  0.34375 0.125 0  0.375 0.125 0  0.40625 0.125 0  0.4375 0.125 0  0.46875 0.125 0  0.5 0.125 0  0.53125 0.125 0  0.5625 0.125 0  0.59375 0.125 0  0.625 0.125 0  0.65625 0.125 0  0.6875 0.125 0  0.71875 0.125 0  0.75 0.125 0  0.78125 0.125 0  0.8125 0.125 0  0.84375 0.125 0  0.875 0.125 0  0.90625 0.125 0  0.9375 0.125 0  0.96875 0.125 0  1 0.125 0  0 0.15625 0  0.03125 0.15625 0  0.0625 0.15625 0  0.09375 0.15625 0  0.125 0.15625 0  0.15625 0.15625 0  0.1875 0.15625 0  0.21875 0.15625 0  0.25 0.15625 0  0.28125 0.15625 0  0.3125 0.15625 0  0.34375 0.15625 0  0.375 0.15625 0  0.40625 0.15625 0  0.4375 0.15625 0  0.46875 0.15625 0  0.5 0.15625 0  0.53125 0.15625 0  0.5625 0.15625 0  0.59375 0.15625 0  0.625 0.15625 0  0.65625 0.15625 0  0.6875 0.15625 0  0.71875 0.15625 0  0.75 0.15625 0  0.78125 0.15625 0  0.8125 0.15625 0  0.84375 0.15625 0  0.875 0.15625 0  0.90625 0.15625 0  0.9375 0.15625 0  0.96875 0.15625 0  1 0.15625 0  0 0.1875 0  0.03125 0.1875 0  0.0625 0.1875 0  0.09375 0.1875 0  0.125 0.1875 0  0.15625 0.1875 0  0.1875 0.1875 0  0.21875 0.1875 0  0.25 0.1875 0  0.28125 0.1875 0  0.3125 0.1875 0  0.34375 0.1875 0  0.375 0.1875 0  0.40625 0.1875 0  0.4375 0.1875 0  0.46875 0.1875 0  0.5 0.1875 0  0.53125 0.1875 0  0.5625 0.1875 0  0.59375 0.1875 0  0.625 0.1875 0  0.65625 0.1875 0  0.6875 0.1875 0  0.71875 0.1875 0  0.75 0.1875 0  0.78125 0.1875 0  0.8125 0.1875 0  0.84375 0.1875 0  0.875 0.1875 0  0.90625 0.1875 0  0.9375 0.1875 0  0.96875 0.1875 0  1 0.1875 0  0 0.21875 0  0.03125 0.21875 0  0.0625 0.21875 0  0.09375 0.21875 0  0.125 0.21875 0  0.15625 0.21875 0  0.1875 0.21875 0  0.21875 0.21875 0  0.25 0.21875 0  0.28125 0.21875 0  0.3125 0.21875 0  0.34375 0.21875 0  0.375 0.21875 0  0.40625 0.21875 0  0.4375 0.21875 0  0.46875 0.21875 0  0.5 0.21875 0  0.53125 0.21875 0  0.5625 0.21875 0  0.59375 0.21875 0  0.625 0.21875 0  0.65625 0.21875 0  0.6875 0.21875 0  0.71875 0.21875 0  0.75 0.21875 0  0.78125 0.21875 0  0.8125 0.21875 0  0.84375 0.21875 0  0.875 0.21875 0  0.90625 0.21875 0  0.9375 0.21875 0  0.96875 0.21875 0  1 0.21875 0  0 0.25 0  0.03125 0.25 0  0.0625 0.25 0  0.09375 0.25 0  0.125 0.25 0  0.15625 0.25 0  0.1875 0.25 0  0.21875 0.25 0  0.25 0.25 0  0.28125 0.25 0  0.3125 0.25 0  0.34375 0.25 0  0.375 0.25 0  0.40625 0.25 0  0.4375 0.25 0  0.46875 0.25 0  0.5 0.25 0  0.53125 0.25 0  0.5625 0.25 0  0.59375 0.25 0  0.625 0.25 0  0.65625 0.25 0  0.6875 0.25 0  0.71875 0.25 0  0.75 0.25 0  0.78125 0.25 0  0.8125 0.25 0  0.84375 0.25 0  0.875 0.25 0  0.90625 0.25 0  0.9375 0.25 0  0.96875 0.25 0  1 0.25 0  0 0.28125 0  0.03125 0.28125 0  0.0625 0.28125 0  0.09375 0.28125 0  0.125 0.28125 0  0.15625 0.28125 0  0.1875 0.28125 0  0.21875 0.28125 0  0.25 0.28125 0  0.28125 0.28125 0  0.3125 0.28125 0  0.34375 0.28125 0  0.375 0.28125 0  0.40625 0.28125 0  0.4375 0.28125 0  0.46875 0.28125 0  0.5 0.28125 0  0.53125 0.28125 0  0.5625 0.28125 0  0.59375 0.28125 0  0.625 0.28125 0  0.65625 0.28125 0  0.6875 0.28125 0  0.71875 0.28125 0  0.75 0.28125 0  0.78125 0.28125 0  0.8125 0.28125 0  0.84375 0.28125 0  0.875 0.28125 0  0.90625 0.28125 0  0.9375 0.28125 0  0.96875 0.28125 0  1 0.28125 0  0 0.3125 0  0.03125 0.3125 0  0.0625 0.3125 0  0.09375 0.3125 0  0.125 0.3125 0  0.15625 0.3125 0  0.1875 0.3125 0  0.21875 0.3125 0  0.25 0.3125 0  0.28125 0.3125 0  0.3125 0.3125 0  0.34375 0.3125 0  0.375 0.3125 0  0.40625 0.3125 0  0.4375 0.3125 0  0.46875 0.3125 0  0.5 0.3125 0  0.53125 0.3125 0  0.5625 0.3125 0  0.59375 0.3125 0  0.625 0.3125 0  0.65625 0.3125 0  0.6875 0.3125 0  0.71875 0.3125 0  0.75 0.3125 0  0.78125 0.3125 0  0.8125 0.3125 0  0.84375 0.3125 0  0.875 0.3125 0  0.90625 0.3125 0  0.9375 0.3125 0  0.96875 0.3125 0  1 0.3125 0  0 0.34375 0  0.03125 0.34375 0  0.0625 0.34375 0  0.09375 0.34375 0  0.125 0.34375 0  0.15625 0.34375 0  0.1875 0.34375 0  0.21875 0.34375 0  0.25 0.34375 0  0.28125 0.34375 0  0.3125 0.34375 0  0.34375 0.34375 0  0.375 0.34375 0  0.40625 0.34375 0  0.4375 0.34375 0  0.46875 0.34375 0  0.5 0.34375 0  0.53125 0.34375 0  0.5625 0.34375 0  0.59375 0.34375 0  0.625 0.34375 0  0.65625 0.34375 0  0.6875 0.34375 0  0.71875 0.34375 0  0.75 0.34375 0  0.78125 0.34375 0  0.8125 0.34375 0  0.84375 0.34375 0  0.875 0.34375 0  0.90625 0.34375 0  0.9375 0.34375 0  0.96875 0.34375 0  1 0.34375 0  0 0.375 0  0.03125 0.375 0  0.0625 0.375 0  0.09375 0.375 0  0.125 0.375 0  0.15625 0.375 0  0.1875 0.375 0  0.21875 0.375 0  0.25 0.375 0  0.28125 0.375 0  0.3125 0.375 0  0.34375 0.375 0  0.375 0.375 0  0.40625 0.375 0  0.4375 0.375 0  0.46875 0.375 0  0.5 0.375 0  0.53125 0.375 0  0.5625 0.375 0  0.59375 0.375 0  0.625 0.375 0  0.65625 0.375 0  0.6875 0.375 0  0.71875 0.375 0  0.75 0.375 0  0.78125 0.375 0  0.8125 0.375 0  0.84375 0.375 0  0.875 0.375 0  0.90625 0.375 0  0.9375 0.375 0  0.96875 0.375 0  1 0.375 0  0 0.40625 0  0.03125 0.40625 0  0.0625 0.40625 0  0.09375 0.40625 0  0.125 0.40625 0  0.15625 0.40625 0  0.1875 0.40625 0  0.21875 0.40625 0  0.25 0.40625 0  0.28125 0.40625 0  0.3125 0.40625 0  0.34375 0.40625 0  0.375 0.40625 0  0.40625 0.40625 0  0.4375 0.40625 0  0.46875 0.40625 0  0.5 0.40625 0  0.53125 0.40625 0  0.5625 0.40625 0  0.59375 0.40625 0  0.625 0.40625 0  0.65625 0.40625 0  0.6875 0.40625 0  0.71875 0.40625 0  0.75 0.40625 0  0.78125 0.40625 0  0.8125 0.40625 0  0.84375 0.40625 0  0.875 0.40625 0  0.90625 0.40625 0  0.9375 0.40625 0  0.96875 0.40625 0  1 0.40625 0  0 0.4375 0  0.03125 0.4375 0  0.0625 0.4375 0  0.09375 0.4375 0  0.125 0.4375 0  0.15625 0.4375 0  0.1875 0.4375 0  0.21875 0.4375 0  0.25 0.4375 0  0.28125 0.4375 0  0.3125 0.4375 0  0.34375 0.4375 0  0.375 0.4375 0  0.40625 0.4375 0  0.4375 0.4375 0  0.46875 0.4375 0  0.5 0.4375 0  0.53125 0.4375 0  0.5625 0.4375 0  0.59375 0.4375 0  0.625 0.4375 0  0.65625 0.4375 0  0.6875 0.4375 0  0.71875 0.4375 0  0.75 0.4375 0  0.78125 0.4375 0  0.8125 0.4375 0  0.84375 0.4375 0  0.875 0.4375 0  0.90625 0.4375 0  0.9375 0.4375 0  0.96875 0.4375 0  1 0.4375 0  0 0.46875 0  0.03125 0.46875 0  0.0625 0.46875 0  0.09375 0.46875 0  0.125 0.46875 0  0.15625 0.46875 0  0.1875 0.46875 0  0.21875 0.46875 0  0.25 0.46875 0  0.28125 0.46875 0  0.3125 0.46875 0  0.34375 0.46875 0  0.375 0.46875 0  0.40625 0.46875 0  0.4375 0.46875 0  0.46875 0.46875 0  0.5 0.46875 0  0.53125 0.46875 0  0.5625 0.46875 0  0.59375 0.46875 0  0.625 0.46875 0  0.65625 0.46875 0  0.6875 0.46875 0  0.71875 0.46875 0  0.75 0.46875 0  0.78125 0.46875 0  0.8125 0.46875 0  0.84375 0.46875 0  0.875 0.46875 0  0.90625 0.46875 0  0.9375 0.46875 0  0.96875 0.46875 0  1 0.46875 0  0 0.5 0  0.03125 0.5 0  0.0625 0.5 0  0.09375 0.5 0  0.125 0.5 0  0.15625 0.5 0  0.1875 0.5 0  0.21875 0.5 0  0.25 0.5 0  0.28125 0.5 0  0.3125 0.5 0  0.34375 0.5 0  0.375 0.5 0  0.40625 0.5 0  0.4375 0.5 0  0.46875 0.5 0  0.5 0.5 0  0.53125 0.5 0  0.5625 0.5 0  0.59375 0.5 0  0.625 0.5 0  0.65625 0.5 0  0.6875 0.5 0  0.71875 0.5 0  0.75 0.5 0  0.78125 0.5 0  0.8125 0.5 0  0.84375 0.5 0  0.875 0.5 0  0.90625 0.5 0  0.9375 0.5 0  0.96875 0.5 0  1 0.5 0  0 0.53125 0  0.03125 0.53125 0  0.0625 0.53125 0  0.09375 0.53125 0  0.125 0.53125 0  0.15625 0.53125 0  0.1875 0.53125 0  0.21875 0.53125 0  0.25 0.53125 0  0.28125 0.53125 0  0.3125 0.53125 0  0.34375 0.53125 0  0.375 0.53125 0  0.40625 0.53125 0  0.4375 0.53125 0  0.46875 0.53125 0  0.5 0.53125 0  0.53125 0.53125 0  0.5625 0.53125 0  0.59375 0.53125 0  0.625 0.53125 0  0.65625 0.53125 0  0.6875 0.53125 0  0.71875 0.53125 0  0.75 0.53125 0  0.78125 0.531
[...]
<PointData  Scalars="v_sol"> 
<DataArray  type="Float64"  Name="v_sol"  format="ascii">2.9408164469249601e-05  2.5424974081387689e-04  3.6674927616994074e-04  2.6139275348889681e-04  1.7945685074792985e-04  -3.4629560623299069e-05  5.1800615807630968e-05  4.9565675718652423e-04  -2.4802523810686791e-04  -2.4286704398528364e-03  -4.6160286200322472e-03  -4.8773938436894072e-03  -3.5919682193411508e-03  -1.9007299165240250e-03  -3.9062866878059320e-04  7.3725676694096434e-04  1.4514525048010716e-03  1.7815764840086426e-03  2.0530599058888352e-03  2.3802534225897259e-03  2.8430242427301918e-03  3.2703262461390562e-03  4.1710195673380938e-03  3.7995917920522863e-03  7.6397948559396610e-04  -8.6160189710726969e-04  -2.2058109524910538e-03  -1.8968774833374364e-03  -1.0328662669390886e-03  -5.1854843646030060e-04  -2.2077428492821494e-04  -5.6865734884967880e-05  1.1738137132206083e-05  1.5922317198133843e-04  -1.4514259128141555e-03  -2.2165033347217619e-03  -1.5253470336823074e-03  -7.3215629561789830e-04  -1.3202707796364140e-04  -8.0849170415732679e-04  -1.8308795075452574e-03  2.0270711160906671e-03  7.7724003350181535e-03  1.2752935305471233e-02  1.7719064938960673e-02  2.0795011858459632e-02  2.0052037854666874e-02  1.5137722395667935e-02  6.8728441129460869e-03  -3.5119120052021875e-03  -1.4659508065902469e-02  -2.4825730139474356e-02  -3.1993085609937980e-02  -3.3977873439405004e-02  -2.9073300554380076e-02  -1.5823874456906632e-02  1.9006993897329682e-03  1.3927406366174393e-02  1.5672785598845437e-02  1.2446722529578203e-02  7.8429579553514067e-03  4.3502538289963968e-03  2.2170754785513754e-03  9.5261394016724879e-04  1.2175845023041271e-04  -1.5771580564203963e-04  8.2496876642015101e-06  -5.8594665454559736e-03  -7.3001317833279464e-03  -4.3270148556715932e-03  -5.9155250845577365e-04  3.6092408554245706e-04  3.9591726543716770e-03  1.5377045271842402e-02  3.3307972304901116e-02  5.1259044377058062e-02  6.2792556764848753e-02  6.5444152001828126e-02  5.9761928529563080e-02  4.7461896526772032e-02  3.0299329595321320e-02  9.8721649477981777e-03  -1.2471405273415297e-02  -3.5303723994853604e-02  -5.6759644770769634e-02  -7.4192643707766265e-02  -8.4058677574946325e-02  -8.2456463156375004e-02  -6.7031998844296142e-02  -3.8475587463454079e-02  -4.9357595487631604e-03  1.7116663972529905e-02  2.3119788207263094e-02  2.1481453815403402e-02  1.5664811429911447e-02  9.5458444530895740e-03  5.0437562118929684e-03  1.9980155425119738e-03  -2.1315101596325388e-04  -4.9044249442136030e-04  -1.2854408128201855e-02  -1.2197786387684244e-02  -3.7548667508876272e-03  3.3935721963881250e-03  1.3588322851332879e-02  3.6350486356236625e-02  6.7855733184337755e-02  9.5452801785840785e-02  1.1190236007921874e-01  1.1515880650928985e-01  1.0687652749078221e-01  9.0233846735945603e-02  6.7968249323643773e-02  4.2016609335060011e-02  1.3599184676447048e-02  -1.6454732767446086e-02  -4.7343240464616881e-02  -7.7716900703373504e-02  -1.0536106898266592e-01  -1.2662490762138859e-01  -1.3652511827371580e-01  -1.2987062401305577e-01  -1.0437162665952243e-01  -6.3164923845191290e-02  -1.7796605940262163e-02  1.2355246074231911e-02  2.1286170017202261e-02  2.1961187509060249e-02  1.7187963688554259e-02  1.1250654451945142e-02  5.7526873253077584e-03  1.8324439109890833e-04  -2.1670077175916487e-03  -2.1700708799840290e-02  -1.3301088573446192e-02  3.8314842297230397e-03  2.2935347319954846e-02  5.6457980877397548e-02  9.9616140269334658e-02  1.3671269318318297e-01  1.5893317607402743e-01  1.6414724189864302e-01  1.5499809349238558e-01  1.3571012038308339e-01  1.1005308479048161e-01  8.0678937089316546e-02  4.9164987422633630e-02  1.6345377623152611e-02  -1.7345460149009794e-02  -5.1686051612118172e-02  -8.6470814021069056e-02  -1.2067549571272630e-01  -1.5200572939102899e-01  -1.7619427426411208e-01  -1.8699655917275215e-01  -1.7746582855924670e-01  -1.4379365327618701e-01  -8.9627175097421075e-02  -2.9644671199412283e-02  9.8590380075858561e-03  1.9632891814105952e-02  2.1367905236088232e-02  1.6557886495758598e-02  1.0637543066987998e-02  7.0216882977055899e-04  -6.1276122602834052e-03  -2.9079410734205894e-02  -5.4987915033428529e-03  2.6633151402394088e-02  6.9131684273546101e-02  1.2281440268202484e-01  1.7056302564375347e-01  2.0018169303737410e-01  2.0861596065212207e-01  1.9930458234596315e-01  1.7789704464723621e-01  1.4949594935779595e-01  1.1771995917160256e-01  8.4674653390283003e-02  5.1269814937024219e-02  1.7681532340925100e-02  -1.6232369874767717e-02  -5.0649220536943387e-02  -8.5697453928526998e-02  -1.2132628189991737e-01  -1.5697236580952389e-01  -1.9082229232025913e-01  -2.1854162099694782e-01  -2.3251872850687899e-01  -2.2294767738106117e-01  -1.8255675718959785e-01  -1.1380027488255888e-01  -3.5511249642987887e-02  1.2819874052189623e-02  1.9573501750224629e-02  2.1479475468540798e-02  1.4726217272203343e-02  1.2715578288093406e-03  -1.3092614149850641e-02  -2.7957020911019280e-02  1.6840666284270393e-02  7.0325624864941386e-02  1.3334262559267282e-01  1.9309191115564284e-01  2.3284035496110525e-01  2.4699701895462642e-01  2.3912140196074327e-01  2.1649112188033159e-01  1.8605273087009527e-01  1.5268368137438532e-01  1.1889953803963646e-01  8.5435129015510883e-02  5.2173477822191325e-02  1.8823576254909085e-02  -1.4822028630247633e-02  -4.8818312871560229e-02  -8.3058130032973479e-02  -1.1751800743596594e-01  -1.5234301161735955e-01  -1.8775459374768996e-01  -2.2311966971098274e-01  -2.5460339658200404e-01  -2.7277858378978304e-01  -2.6340986754867790e-01  -2.1437997764190714e-01  -1.2751485353219413e-01  -2.9358385666649126e-02  1.9890506335476593e-02  2.1373951716319183e-02  1.8612848281103146e-02  1.9719628644988005e-03  -1.9900965905224711e-02  -1.1528599264546573e-02  5.5203792465180208e-02  1.2824616181061274e-01  2.0064207851753951e-01  2.5422360211123551e-01  2.7832069086791394e-01  2.7497521361085858e-01  2.5288745258883455e-01  2.2143121641096702e-01  1.8728650504144764e-01  1.5349205399283444e-01  1.2042568894167911e-01  8.7528495770919465e-02  5.4358292486062484e-02  2.0775899403453240e-02  -1.3192080226244365e-02  -4.7444720399255749e-02  -8.1750785236379450e-02  -1.1582447919849739e-01  -1.4941690291314871e-01  -1.8269234604666829e-01  -2.1666209802857792e-01  -2.5237919467364567e-01  -2.8705631742024068e-01  -3.0877836335291398e-01  -2.9688582148489828e-01  -2.3345987756310724e-01  -1.2270113595294688e-01  -7.3349594136083458e-03  2.4251587767941087e-02  2.2156932216164903e-02  1.7050002523403549e-03  -1.8815290144384000e-02  2.0290699027683309e-02  1.0503568270361642e-01  1.9015131716289357e-01  2.6062662672176229e-01  3.0032221672587850e-01  3.0650800283140223e-01  2.8796274391258109e-01  2.5677252324254285e-01  2.2232486113281277e-01  1.8881376703407671e-01  1.5635931211496426e-01  1.2388582250306571e-01  9.0838143284350983e-02  5.7223744357741031e-02  2.3204406242065483e-02  -1.1089598540410152e-02  -4.5577726896485385e-02  -8.0223123973151858e-02  -1.1484877556947069e-01  -1.4905051309579170e-01  -1.8220866093660781e-01  -2.1408578903233166e-01  -2.4613416003928962e-01  -2.8137547039853156e-01  -3.1839383840582525e-01  -3.4135741512647594e-01  -3.2054725275203055e-01  -2.3264433192031933e-01  -9.1417471737876912e-02  2.3685817023759274e-02  2.2569294004170529e-02  3.5735869482323075e-03  -6.6928010618222643e-03  6.3305668394578851e-02  1.5982083104909386e-01  2.4803051171646909e-01  3.0865954239758897e-01  3.3138288646937497e-01  3.2134229249241802e-01  2.9248585695510776e-01  2.5793494352703883e-01  2.2443973010392756e-01  1.9247293567554619e-01  1.6035216918750361e-01  1.2731693862582552e-01  9.3610899555650010e-02  5.9616859545510575e-02  2.5503078927493903e-02  -8.7199964235164049e-03  -4.3081574553938559e-02  -7.7622964145890871e-02  -1.1237253106167894e-01  -1.4727035377326503e-01  -1.8192585595596297e-01  -2.1530536698342612e-01  -2.4635666007328214e-01  -2.7661194143766826e-01  -3.1140015568223189e-01  -3.5026925278473636e-01  -3.6992680304889353e-01  -3.2822823036873933e-01  -2.0127312088957217e-01  -2.8055165408767357e-02  3.1471657598773371e-02  8.0391418067268308e-03  1.3311740306955125e-02  1.1241307591833183e-01  2.1350841596632034e-01  2.9772953982604150e-01  3.4442572078459727e-01  3.5063299879914223e-01  3.2831337303589642e-01  2.9440559272743405e-01  2.6027130838230528e-01  2.2839833715524055e-01  1.9665312127317633e-01  1.6366825818609443e-01  1.2982940198486564e-01  9.5810470089199587e-02  6.1830183955373007e-02  2.7832576614844621e-02  -6.2608943451047602e-03  -4.0489547483087925e-02  -7.4839774832584166e-02  -1.0932451083819417e-01  -1.4403681506398774e-01  -1.7912248110972387e-01  -2.1436816986065724e-01  -2.4833041877393264e-01  -2.7883261443038393e-01  -3.0759971214990384e-01  -3.4306374999342448e-01  -3.8327365134770641e-01  -3.9002805757181003e-01  -3.0664011453207535e-01  -1.2554771841517809e-01  3.6829957453911190e-02  5.1000568885850306e-03  3.6392396778632936e-02  1.6210236138456421e-01  2.6204611630424718e-01  3.3806233766216920e-01  3.6995308295648838e-01  3.6225196062021359e-01  3.3209153176688527e-01  2.9689098139112113e-01  2.6420413797101711e-01  2.3278356585187424e-01  2.0010680254300614e-01  1.6619957340136282e-01  1.3210967263829490e-01  9.8218682576832403e-02  6.4372610139842107e-02  3.0424170603274927e-02  -3.6597187138885778e-03  -3.7872244587894517e-02  -7.2197807799269154e-02  -1.0660686791361884e-01  -1.4108555071203430e-01  -1.7575954004402095e-01  -2.1101684628922901e-01  -2.4691328624812289e-01  -2.8140937103901609e-01  -3.1094446144181626e-01  -3.3874788691496399e-01  -3.7746597830118073e-01  -4.1559422381752920e-01  -3.8833339081097334e-01  -2.3189762865028268e-01  4.7843413722600684e-03  9.4133514275673968e-03  5.7402778890944889e-02  2.0802684365101820e-01  3.0327642845213348e-01  3.6956583139420723e-01  3.8798445960514305e-01  3.6978878707444346e-01  3.3538897388179034e-01  3.0058551871903999e-01  2.6873024253887123e-01  2.3665085580702622e-01  2.0290475236588484e-01  1.6863404352012282e-01  1.3470240270417913e-01  1.0095442783664856e-01  6.7117174896451290e-02  3.3153469834453740e-02  -9.1401142980054840e-04  -3.5088992517334182e-02  -6.9396202999864667e-02  -1.0384781297550112e-01  -1.3841295678889035e-01  -1.7302803685092474e-01  -2.0780940460660619e-01  -2.4342349136161684e-01  -2.8014381879409456e-01  -3.1464466773615962e-01  -3.4207803509388662e-01  -3.7099459143736330e-01  -4.1644849303658654e-01  -4.3718937273562664e-01  -3.3334216051504090e-01  -7.3335592875292538e-02  4.7864080060536073e-02  7.2243459169604091e-02  2.4721663418086190e-01  3.3639299998089206e-01  3.9348384132020797e-01  4.0094288783619458e-01  3.7550280131389269e-01  3.3912029265771726e-01  3.0494575501023741e-01  2.7304052866527423e-01  2.3993537594776171e-01  2.0552473390630299e-01  1.7128884390915686e-01  1.3750332054794343e-01  1.0373148659554322e-01  6.9844793084223866e-02  3.5910182852052885e-02  1.9277005886411879e-03  -3.2149211398491868e-02  -6.6365694551628579e-02  -1.0076940017928229e-01  -1.3539849455162031e-01  -1.7023087388178243e-01  -2.0514722028600524e-01  -2.4027439913927137e-01  -2.7669082257766597e-01  -3.1444844650971898e-01  -3.4742283810636537e-01  -3.7187054961882132e-01  -4.0861998732946542e-01  -4.5777527171912191e-01  -4.1616200723534880e-01  -1.7637157509771431e-01  9.4525768405908137e-02  7.8237986055578329e-02  2.7783536176212870e-01  3.6144248259562284e-01  4.1107219072822260e-01  4.1053383346684863e-01  3.8044713472509800e-01  3.4319516771740599e-01  3.0931214601576484e-01  2.7685987976529380e-01  2.4287443595757291e-01  2.0817946475185695e-01  1.7404814539915464e-01  1.4026565595855447e-01  1.0642071470904801e-01  7.2552890497328021e-02  3.8719918347943541e-02  4.8629670540025847e-03  -2.9081704649280598e-02  -6.3166781801410263e-02  -9.7452117209009176e-02  -1.3201138153870351e-01  -1.6690959822091431e-01  -2.0212706156364746e-01  -2.3749326397576667e-01  -2.7331593482431971e-01  -3.1129517531587830e-01  -3.4959118651691651e-01  -3.7774108222484371e-01  -4.0335224894598826e-01  -4.5871185965956596e-01  -4.7363709138169663e-01  -2.7658673026903957e-01  1.0946367123887134e-01  7.3702522087204125e-02  2.9912375775424482e-01  3.7869229866105103e-01  4.2335125955111774e-01  4.1771909210072261e-01  3.8491155216357475e-01  3.4722072983533864e-01  3.1327338858752884e-01  2.8018290060317874e-01  2.4560733743570645e-01  2.1080718561527775e-01  1.7671540091405866e-01  1.4288219590943269e-01  1.0902841109877100e-01  7.5263351974137097e-02  4.1581970064161741e-02  7.8904345360671160e-03  -2.5877248842553949e-02  -5.9783389013014547e-02  -9.3900886621229404e-02  -1.2831887059466687e-01  -1.6314335456218629e-01  -1.9844530724596063e-01  -2.3417453073029354e-01  -2.7016632190058659e-01  -3.0737484324464670e-01  -3.4770741799371535e-01  -3.8308239497446295e-01  -4.0400875581593060e-01  -4.4951986643537578e-01  -5.0541255883290492e-01  -3.6418462384396200e-01  8.7995685610602212e-02  5.9853931197323809e-02  3.0956982860138121e-01  3.8889635657491378e-01  4.3084115452473876e-01  4.2294341351007592e-01  3.8884000522566287e-01  3.5084687302924761e-01  3.1663497707411387e-01  2.8303824448345949e-01  2.4812087626337279e-01  2.1326602060062999e-01  1.7916861280096502e-01  1.4532074507177667e-01  1.1154139220988084e-01  7.7936779932322314e-02  4.4453163132813583e-02  1.0988298053267027e-02  -2.2529969222862430e-02  -5.6183490644550700e-02  -9.0060758228787105e-02  -1.2425874741012835e-01  -1.5891519314227720e-01  -1.9415901127530361e-01  -2.3000522356321168e-01  -2.6638299603575849e-01  -3.0340405580460333e-01  -3.4334859642483517e-01  -3.8448146669436994e-01  -4.0847969875262286e-01  -4.3808135159533701e-01  -5.1582538871192296e-01  -4.3688874065197902e-01  4.1341962945399387e-02  3.9653011642162166e-02  3.0735984467992650e-01  3.9292597039866145e-01  4.3349991836599217e-01  4.2638589203695210e-01  3.9210511215536570e-01  3.5387924042370400e-01  3.1929132900133650e-01  2.8540344295501224e-01  2.5033826187848840e-01  2.1543844720951549e-01  1.8133260867267034e-01  1.4754042787937063e-01  1.1390604262273556e-01  8.0513049069639311e-02  4.7290892013598471e-02  1.4132512497882836e-02  -1.9046827964492970e-02  -5.2350350369580856e-02  -8.5888989170937555e-02  -1.1976712751268920e-01  -1.5413641249674351e-01  -1.8919272965269623e-01  -2.2499050345092073e-01  -2.6148692741384250e-01  -2.9879825296341550e-01  -3.3796868065988855e-01  -3.8148207640013476e-01  -4.1286865048759169e-01  -4.2893524636413261e-01  -5.1117635710070564e-01  -4.9446195325784703e-01  -1.7236824830565954e-02  1.5408350884400512e-02  2.9217539297725625e-01  3.9049982073756095e-01  4.3144682057043016e-01  4.2774417870778014e-01  3.9467893866077319e-01  3.5626289458910282e-01  3.2119454244939988e-01  2.8719234280383715e-01  2.5218076763408687e-01  2.1724784423755325e-01  1.8313564264802909e-01  1.4947287078367216e-01  1.1605565841365227e-01  8.2933669922022599e-02  5.0050874605986027e-02  1.7293785046172429e-02  -1.5443938565406492e-02  -4.8283147600612274e-02  -8.1356639382751644e-02  -1.1478497089322366e-01  -1.4873687835990482e-01  -1.8344215085520010e-01  -2.1903080836229574e-01  -2.5540440656953278e-01  -2.9284689524933111e-01  -3.3185422457667957e-01  -3.7520559742371112e-01  -4.1408857512419467e-01  -4.2306049819133162e-01  -4.9692008413048955e-01  -5.3742904433284822e-01  -7.8764721222839881e-02  -9.4653319801079171e-03  2.6419615551885317e-01  3.8036299910094579e-01  4.2490434455769616e-01  4.2636475923833722e-01  3.9646566118289722e-01  3.5807740487365236e-01  3.2237382995442210e-01  2.8830454781375386e-01  2.5354175408004109e-01  2.1864373805123719e-01  1.8451367561781790e-01  1.5102337702468924e-01  1.1790735076198437e-01  8.5138586653357190e-02  5.2682174229098030e-02  2.0429635016882091e-02  -1.1747205091107984e-02  -4.3990858971584376e-02  -7.6449589432163095e-02  -1.0926660899203346e-01  -1.4264093392771593e-01  -1.7683415340176314e-01  -2.1198095995064553e-01  -2.4805403423219283e-01  -2.8525280010358445e-01  -3.2445065283314362e-01  -3.6688425575552092e-01  -4.1062916161435287e-01  -4.1895723598800788e-01  -4.7693970965338189e-01  -5.6681884085844159e-01  -1.3860065375969077e-01  -3.0050687261126759e-02  2.2414314412252923e-01  3.6050349611506499e-01  4.1364774941828653e-01  4.2160559294091715e-01  3.9703781123650750e-01  3.5951042238688335e-01  3.2296079366181774e-01  2.8866770366521383e-01  2.5426459596573348e-01  2.1955543203692734e-01  1.8542493478181474e-01  1.5209482689732562e-01  1.1934427480859328e-01  8.7039177228304662e-02  5.5120266649441460e-02  2.3489286322621698e-02  -7.9930118057004017e-03  -3.9487526140491683e-02  -7.1158816352060325e-02  -1.0318246485872425e-01  -1.3579881453622095e-01  -1.6928077483590026e-01  -2.0374206189607932e-01  -2.3924338188282038e-01  -2.7597063139091588e-01  -3.1507674284163673e-01  -3.5709588839078399e-01  -4.0225936916195909e-01  -4.1409915417895049e-01  -4.5346837305527821e-01  -5.8395681691051637e-01  -1.9514067273936397e-01  -4.0590216066810327e-02  1.7364249282392194e-01  3.2876009522299443e-01  3.9651655419397352e-01  4.1293263424076576e-01  3.9558786715862099e-01  3.6059776851677006e-01  3.2325027958513480e-01  2.8829720151840321e-01  2.5415277164278860e-01  2.1981858731243897e-01  1.8581197579137324e-01  1.5262720343745065e-01  1.2024993791512686e-01  8.8505791056525188e-02  5.7262570516807519e-02  2.6401386428921068e-02  -4.2261768696338223e-03  -3.4793199651540450e-02  -6.5487157863420700e-02  -9.6525739908051231e-02  -1.2818259216926076e-01  -1.6070378867517260e-01  -1.9420142080019293e-01  -2.2881538193483864e-01  -2.6487441150268348e-01  -3.0346396668435988e-01  -3.4547790282316920e-01  -3.8963623322521740e-01  -4.0571757932985847e-01  -4.2760943129854806e-01  -5.9014912097093364e-01  -2.4851181124481675e-01  -3.7384734996942448e-02  1.1640765009327259e-01  2.8368313187555955e-01  3.7140720912696490e-01  3.9961136041361267e-01  3.9107388309536745e-01  3.6084322100897287e-01  3.2356007503483969e-01  2.8743136402398650e-01  2.5305761536755916e-01  2.1913043364022580e-01  1.8547857152137709e-01  1.5254836290442145e-01  1.2055806412347099e-01  8.9428819724523947e-02  5.8988908151966758e-02  2.9065197878759545e-02  -5.1891639234912413e-04  -2.9959071554288810e-02  -5.9475218587873899e-02  -8.9320425485936994e-02  -1.1976737477964916e-01  -1.5102312256789013e-01  -1.8323341935905063e-01  -2.1667467816516320e-01  -2.5176764776227151e-01  -2.8963726191393901e-01  -3.3124049547366402e-01  -3.7348574567900661e-01  -3.9139875325436513e-01  -3.9969700510945977e-01  -5.8649832510031252e-01  -2.9976807860437504e-01  -2.3174061015414263e-02  5.9525671421385637e-02  2.2640490467436661e-01  3.3535568144134287e-01  3.8011435834494745e-01  3.8235159687631598e-01  3.5903873562923000e-01  3.2371237479104525e-01  2.8649425915717924e-01  2.5110815130256742e-01  2.1718370147813607e-01  1.8400710203462167e-01  1.5158573159333061e-01  1.2014302645616974e-01  8.9725981242292016e-02  6.0206568545836968e-02  3.1383230264717496e-02  3.0339597138968892e-03  -2.5072443246172454e-02  -5.3189093382980772e-02  -8.1583016726940405e-02  -1.1049860870954638e-01  -1.4014184735463550e-01  -1.7076249075669769e-01  -2.0274602733499369e-01  -2.3657190035923029e-01  -2.7348369082786234e-01  -3.1401505582872408e-01  -3.5341014686421868e-01  -3.7005678379535650e-01  -3.6885542468958382e-01  -5.7436930031801336e-01  -3.5006434853194446e-01  -9.9040766980497321e-03  1.4964191554878624e-02  1.6053353405903339e-01  2.8618236510735812e-01  3.5143689000756445e-01  3.6780031615803965e-01  3.5349551624439135e-01  3.2250442783220024e-01  2.8548207627446948e-01  2.4873691268296033e-01  2.1403240705740176e-01  1.8101000215620175e-01  1.4923673434721355e-01  1.1862300581573679e-01  8.9166607832262101e-02  6.0770923745197263e-02  3.3245281974953265e-02  6.3452697848206353e-03  -2.0195818208025303e-02  -4.6645190199284370e-02  -7.3259365407626079e-02  -1.0029601001619069e-01  -