<?xml version="1.0"?>
<VTKFile type="UnstructuredGrid"  version="0.1"  >
<UnstructuredGrid>
<Piece  NumberOfPoints="16641" NumberOfCells="16384">
<Points>
<DataArray  type="Float64"  NumberOfComponents="3"  format="ascii">0 0 0  0.0078125 0 0  0.015625 0 0  0.0234375 0 0  0.03125 0 0  0.0390625 0 0  0.046875 0 0  0.0546875 0 0  0.0625 0 0  0.0703125 0 0  0.078125 0 0  0.0859375 0 0  0.09375 0 0  0.1015625 0 0  0.109375 0 0  0.1171875 0 0  0.125 0 0  0.1328125 0 0  0.140625 0 0  0.1484375 0 0  0.15625 0 0  0.1640625 0 0  0.171875 0 0  0.1796875 0 0  0.1875 0 0  0.1953125 0 0  0.203125 0 0  0.2109375 0 0  0.21875 0 0  0.2265625 0 0  0.234375 0 0  0.2421875 0 0  0.25 0 0  0.2578125 0 0  0.265625 0 0  0.2734375 0 0  0.28125 0 0  0.2890625 0 0  0.296875 0 0  0.3046875 0 0  0.3125 0 0  0.3203125 0 0  0.328125 0 0  0.3359375 0 0  0.34375 0 0  0.3515625 0 0  0.359375 0 0  0.3671875 0 0  0.375 0 0  0.3828125 0 0  0.390625 0 0  0.3984375 0 0  0.40625 0 0  0.4140625 0 0  0.421875 0 0  0.4296875 0 0  0.4375 0 0  0.4453125 0 0  0.453125 0 0  0.4609375 0 0  0.46875 0 0  0.4765625 0 0  0.484375 0 0  0.4921875 0 0  0.5 0 0  0.5078125 0 0  0.515625 0 0  0.5234375 0 0  0.53125 0 0  0.5390625 0 0  0.546875 0 0  0.5546875 0 0  0.5625 0 0  0.5703125 0 0  0.578125 0 0  0.5859375 0 0  0.59375 0 0  0.6015625 0 0  0.609375 0 0  0.6171875 0 0  0.625 0 0  0.6328125 0 0  0.640625 0 0  0.6484375 0 0  0.65625 0 0  0.6640625 0 0  0.671875 0 0  0.6796875 0 0  0.6875 0 0  0.6953125 0 0  0.703125 0 0  0.7109375 0 0  0.71875 0 0  0.7265625 0 0  0.734375 0 0  0.7421875 0 0  0.75 0 0  0.7578125 0 0  0.765625 0 0  0.7734375 0 0  0.78125 0 0  0.7890625 0 0  0.796875 0 0  0.8046875 0 0  0.8125 0 0  0.8203125 0 0  0.828125 0 0  0.8359375 0 0  0.84375 0 0  0.8515625 0 0  0.859375 0 0  0.8671875 0 0  0.875 0 0  0.8828125 0 0  0.890625 0 0  0.8984375 0 0  0.90625 0 0  0.9140625 0 0  0.921875 0 0  0.9296875 0 0  0.9375 0 0  0.9453125 0 0  0.953125 0 0  0.9609375 0 0  0.96875 0 0  0.9765625 0 0  0.984375 0 0  0.9921875 0 0  1 0 0  0 0.0078125 0  0.0078125 0.0078125 0  0.015625 0.0078125 0  0.0234375 0.0078125 0  0.03125 0.0078125 0  0.0390625 0.0078125 0  0.046875 0.0078125 0  0.0546875 0.0078125 0  0.0625 0.0078125 0  0.0703125 0.0078125 0  0.078125 0.0078125 0  0.0859375 0.0078125 0  0.09375 0.0078125 0  0.1015625 0.0078125 0  0.109375 0.0078125 0  0.1171875 0.0078125 0  0.125 0.0078125 0  0.1328125 0.0078125 0  0.140625 0.0078125 0  0.1484375 0.0078125 0  0.15625 0.0078125 0  0.1640625 0.0078125 0  0.171875 0.0078125 0  0.1796875 0.0078125 0  0.1875 0.0078125 0  0.1953125 0.0078125 0  0.203125 0.0078125 0  0.2109375 0.0078125 0  0.21875 0.0078125 0  0.2265625 0.0078125 0  0.234375 0.0078125 0  0.2421875 0.0078125 0  0.25 0.0078125 0  0.2578125 0.0078125 0  0.265625 0.0078125 0  0.2734375 0.0078125 0  0.28125 0.0078125 0  0.2890625 0.0078125 0  0.296875 0.0078125 0  0.3046875 0.0078125 0  0.3125 0.0078125 0  0.3203125 0.0078125 0  0.328125 0.0078125 0  0.3359375 0.0078125 0  0.34375 0.0078125 0  0.3515625 0.0078125 0  0.359375 0.0078125 0  0.3671875 0.0078125 0  0.375 0.0078125 0  0.3828125 0.0078125 0  0.390625 0.0078125 0  0.3984375 0.0078125 0  0.40625 0.0078125 0  0.4140625 0.0078125 0  0.421875 0.0078125 0  0.4296875 0.0078125 0  0.4375 0.0078125 0  0.4453125 0.0078125 0  0.453125 0.0078125 0  0.4609375 0.0078125 0  0.46875 0.0078125 0  0.4765625 0.0078125 0  0.484375 0.0078125 0  0.4921875 0.0078125 0  0.5 0.0078125 0  0.5078125 0.0078125 0  0.515625 0.0078125 0  0.5234375 0.0078125 0  0.53125 0.0078125 0  0.5390625 0.0078125 0  0.546875 0.0078125 0  0.5546875 0.0078125 0  0.5625 0.0078125 0  0.5703125 0.0078125 0  0.578125 0.0078125 0  0.5859375 0.0078125 0  0.59375 0.0078125 0  0.6015625 0.0078125 0  0.609375 0.0078125 0  0.6171875 0.0078125 0  0.625 0.0078125 0  0.6328125 0.0078125 0  0.640625 0.0078125 0  0.6484375 0.0078125 0  0.65625 0.0078125 0  0.6640625 0.0078125 0  0.671875 0.0078125 0  0.6796875 0.0078125 0  0.6875 0.0078125 0  0.6953125 0.0078125 0  0.703125 0.0078125 0  0.7109375 0.0078125 0  0.71875 0.0078125 0  0.7265625 0.0078125 0  0.734375 0.0078125 0  0.7421875 0.0078125 0  0.75 0.0078125 0  0.7578125 0.0078125 0  0.765625 0.0078125 0  0.7734375 0.0078125 0  0.78125 0.0078125 0  0.7890625 0.0078125 0  0.796875 0.0078125 0  0.8046875 0.0078125 0  0.8125 0.0078125 0  0.8203125 0.0078125 0  0.828125 0.0078125 0  0.8359375 0.0078125 0  0.84375 0.0078125 0  0.8515625 0.0078125 0  0.859375 0.0078125 0  0.8671875 0.0078125 0  0.875 0.0078125 0  0.8828125 0.0078125 0  0.890625 0.0078125 0  0.8984375 0.0078125 0  0.90625 0.0078125 0  0.9140625 0.0078125 0  0.921875 0.0078125 0  0.9296875 0.0078125 0  0.9375 0.0078125 0  0.9453125 0.0078125 0  0.953125 0.0078125 0  0.9609375 0.0078125 0  0.96875 0.0078125 0  0.9765625 0.0078125 0  0.984375 0.0078125 0  0.9921875 0.0078125 0  1 0.0078125 0  0 0.015625 0  0.0078125 0.015625 0  0.015625 0.015625 0  0.0234375 0.015625 0  0.03125 0.015625 0  0.0390625 0.015625 0  0.046875 0.015625 0  0.0546875 0.015625 0  0.0625 0.015625 0  0.0703125 0.015625 0  0.078125 0.015625 0  0.0859375 0.015625 0  0.09375 0.015625 0  0.1015625 0.015625 0  0.109375 0.015625 0  0.1171875 0.015625 0  0.125 0.015625 0  0.1328125 0.015625 0  0.140625 0.015625 0  0.1484375 0.015625 0  0.15625 0.015625 0  0.1640625 0.015625 0  0.171875 0.015625 0  0.1796875 0.015625 0  0.1875 0.015625 0  0.1953125 0.015625 0  0.203125 0.015625 0  0.2109375 0.015625 0  0.21875 0.015625 0  0.2265625 0.015625 0  0.234375 0.015625 0  0.2421875 0.015625 0  0.25 0.015625 0  0.2578125 0.015625 0  0.265625 0.015625 0  0.2734375 0.015625 0  0.28125 0.015625 0  0.2890625 0.015625 0  0.296875 0.015625 0  0.3046875 0.015625 0  0.3125 0.015625 0  0.3203125 0.015625 0  0.328125 0.015625 0  0.3359375 0.015625 0  0.34375 0.015625 0  0.3515625 0.015625 0  0.359375 0.015625 0  0.3671875 0.015625 0  0.375 0.015625 0  0.3828125 0.015625 0  0.390625 0.015625 0  0.3984375 0.015625 0  0.40625 0.015625 0  0.4140625 0.015625 0  0.421875 0.015625 0  0.4296875 0.015625 0  0.4375 0.015625 0  0.4453125 0.015625 0  0.453125 0.015625 0  0.4609375 0.015625 0  0.46875 0.015625 0  0.4765625 0.015625 0  0.484375 0.015625 0  0.4921875 0.015625 0  0.5 0.015625 0  0.5078125 0.015625 0  0.515625 0.015625 0  0.5234375 0.015625 0  0.53125 0.015625 0  0.5390625 0.015625 0  0.546875 0.015625 0  0.5546875 0.015625 0  0.5625 0.015625 0  0.5703125 0.015625 0  0.578125 0.015625 0  0.5859375 0.015625 0  0.59375 0.015625 0  0.6015625 0.015625 0  0.609375 0.015625 0  0.6171875 0.015625 0  0.625 0.015625 0  0.6328125 0.015625 0  0.640625 0.015625 0  0.6484375 0.015625 0  0.65625 0.015625 0  0.6640625 0.015625 0  0.671875 0.015625 0  0.6796875 0.015625 0  0.6875 0.015625 0  0.6953125 0.015625 0  0.703125 0.015625 0  0.7109375 0.015625 0  0.71875 0.015625 0  0.7265625 0.015625 0  0.734375 0.015625 0  0.7421875 0.015625 0  0.75 0.015625 0  0.7578125 0.015625 0  0.765625 0.015625 0  0.7734375 0.015625 0  0.78125 0.015625 0  0.7890625 0.015625 0  0.796875 0.015625 0  0.8046875 0.015625 0  0.8125 0.015625 0  0.8203125 0.015625 0  0.828125 0.015625 0  0.8359375 0.015625 0  0.84375 0.015625 0  0.8515625 0.015625 0  0.859375 0.015625 0  0.8671875 0.015625 0  0.875 0.015625 0  0.8828125 0.015625 0  0.890625 0.015625 0  0.8984375 0.015625 0  0.90625 0.015625 0  0.9140625 0.015625 0  0.921875 0.015625 0  0.9296875 0.015625 0  0.9375 0.015625 0  0.9453125 0.015625 0  0.953125 0.015625 0  0.9609375 0.015625 0  0.96875 0.015625 0  0.9765625 0.015625 0  0.984375 0.015625 0  0.9921875 0.015625 0  1 0.015625 0  0 0.0234375 0  0.0078125 0.0234375 0  0.015625 0.0234375 0  0.0234375 0.0234375 0  0.03125 0.0234375 0  0.0390625 0.0234375 0  0.046875 0.0234375 0  0.0546875 0.0234375 0  0.0625 0.0234375 0  0.0703125 0.0234375 0  0.078125 0.0234375 0  0.0859375 0.0234375 0  0.09375 0.0234375 0  0.1015625 0.0234375 0  0.109375 0.0234375 0  0.1171875 0.0234375 0  0.125 0.0234375 0  0.1328125 0.0234375 0  0.140625 0.0234375 0  0.1484375 0.0234375 0  0.15625 0.0234375 0  0.1640625 0.0234375 0  0.171875 0.0234375 0  0.1796875 0.0234375 0  0.1875 0.0234375 0  0.1953125 0.0234375 0  0.203125 0.0234375 0  0.2109375 0.0234375 0  0.21875 0.0234375 0  0.2265625 0.0234375 0  0.234375 0.0234375 0  0.2421875 0.0234375 0  0.25 0.0234375 0  0.2578125 0.0234375 0  0.265625 0.0234375 0  0.2734375 0.0234375 0  0.28125 0.0234375 0  0.2890625 0.0234375 0  0.296875 0.0234375 0  0.3046875 0.0234375 0  0.3125 0.0234375 0  0.3203125 0.0234375 0  0.328125 0.0234375 0  0.3359375 0.0234375 0  0.34375 0.0234375 0  0.3515625 0.0234375 0  0.359375 0.0234375 0  0.3671875 0.0234375 0  0.375 0.0234375 0  0.3828125 0.0234375 0  0.390625 0.0234375 0  0.3984375 0.0234375 0  0.40625 0.0234375 0  0.4140625 0.0234375 0  0.421875 0.0234375 0  0.4296875 0.0234375 0  0.4375 0.0234375 0  0.4453125 0.0234375 0  0.453125 0.0234375 0  0.4609375 0.0234375 0  0.46875 0.0234375 0  0.4765625 0.0234375 0  0.484375 0.0234375 0  0.4921875 0.0234375 0  0.5 0.0234375 0  0.5078125 0.0234375 0  0.515625 0.0234375 0  0.5234375 0.0234375 0  0.53125 0.0234375 0  0.5390625 0.0234375 0  0.546875 0.0234375 0  0.5546875 0.0234375 0  0.5625 0.0234375 0  0.5703125 0.0234375 0  0.578125 0.0234375 0  0.5859375 0.0234375 0  0.59375 0.0234375 0  0.6015625 0.0234375 0  0.609375 0.0234375 0  0.6171875 0.0234375 0  0.625 0.0234375 0  0.6328125 0.0234375 0  0.640625 0.0234375 0  0.6484375 0.0234375 0  0.65625 0.0234375 0  0.6640625 0.0234375 0  0.671875 0.0234375 0  0.6796875 0.0234375 0  0.6875 0.0234375 0  0.6953125 0.0234375 0  0.703125 0.0234375 0  0.7109375 0.0234375 0  0.71875 0.0234375 0  0.7265625 0.0234375 0  0.734375 0.0234375 0  0.7421875 0.0234375 0  0.75 0.0234375 0  0.7578125 0.0234375 0  0.765625 0.0234375 0  0.7734375 0.0234375 0  0.78125 0.0234375 0  0.7890625 0.0234375 0  0.796875 0.0234375 0  0.8046875 0.0234375 0  0.8125 0.0234375 0  0.8203125 0.0234375 0  0.828125 0.0234375 0  0.8359375 0.0234375 0  0.84375 0.0234375 0  0.8515625 0.0234375 0  0.859375 0.0234375 0  0.8671
[...]
<PointData  Scalars="u_sol"> 
<DataArray  type="Float64"  Name="u_sol"  format="ascii">9.7063735239489379e-07  -2.1165775048814537e-06  -1.2858330848510698e-05  -2.2154706311541005e-05  -2.7777662102101361e-05  -2.8884042141929937e-05  -2.5343851777942386e-05  -1.7353284649356682e-05  -5.6232106974509400e-06  8.7614777974616411e-06  2.4451661876688010e-05  4.0087480645055688e-05  5.4511424702921350e-05  6.6942721695456160e-05  7.7046292653112417e-05  8.4915368977013571e-05  9.0984803106916644e-05  9.5917191055969775e-05  1.0049173414165647e-04  1.0551733489214892e-04  1.1177506495835984e-04  1.1998588395780910e-04  1.3079416777553540e-04  1.4475903146168165e-04  1.6235054666372174e-04  1.8395514168051660e-04  2.0989974284714568e-04  2.4050500954618021e-04  2.7617029148600309e-04  3.1747746437655336e-04  3.6528850086401239e-04  4.2080133974288508e-04  4.8553429847416084e-04  5.6125307029480671e-04  6.4988090672899368e-04  7.5340912700743942e-04  8.7382596911767202e-04  1.0130913185291944e-03  1.1730988112388255e-03  1.3554867209058933e-03  1.5612973265734650e-03  1.7906247428105735e-03  2.0422737305882620e-03  2.3134623140405874e-03  2.5996465533707595e-03  2.8940835318909896e-03  3.1867065290430391e-03  3.4629764854255348e-03  3.7039798057085004e-03  3.8880593623483338e-03  3.9930585083653505e-03  3.9981907358084337e-03  3.8852669280619624e-03  3.6395675811501447e-03  3.2506783610066182e-03  2.7133538883144549e-03  2.0282694720716713e-03  1.2024905742771619e-03  2.4958294255233093e-04  -8.1060197963358919e-04  -1.9523668668059652e-03  -3.1447260452563664e-03  -4.3520096540684127e-03  -5.5344980194363350e-03  -6.6491251708102909e-03  -7.6503322847737880e-03  -8.4911774945459935e-03  -9.1248130580211875e-03  -9.5064218635484126e-03  -9.5956618272495190e-03  -9.3595957003870731e-03  -8.7759866625581780e-03  -7.8367207129756786e-03  -6.5509890918907356e-03  -4.9477490586412537e-03  -3.0769127704369497e-03  -1.0087283617717319e-03  1.1690504813195609e-03  3.3563450259189143e-03  5.4480411556182360e-03  7.3427107997141262e-03  8.9516945075584949e-03  1.0207234824547053e-02  1.1068363876332091e-02  1.1523548970352326e-02  1.1589647486804180e-02  1.1307405215607327e-02  1.0734379475509591e-02  9.9366249576330768e-03  8.9806363064207015e-03  7.9268725020450563e-03  6.8257620069754948e-03  5.7165360865620097e-03  4.6286751432951783e-03  3.5852465084733678e-03  2.6069694533363804e-03  1.7155120689737379e-03  9.3445645957652426e-04  2.8690132024720917e-04  -2.0993797484802180e-04  -5.5088126999281904e-04  -7.4636517011046925e-04  -8.2110993357040966e-04  -8.0813618783567040e-04  -7.4091480033024052e-04  -6.4723177367590466e-04  -5.4669495438591635e-04  -4.5120654875346319e-04  -3.6674627513582519e-04  -2.9536705540378545e-04  -2.3689628150048051e-04  -1.9013330320135041e-04  -1.5353423084412410e-04  -1.2551032798992188e-04  -1.0451118971475179e-04  -8.9031382909094767e-05  -7.7617387466053449e-05  -6.8894752682782334e-05  -6.1613191694686364e-05  -5.4698988272705727e-05  -4.7316700737836530e-05  -3.8929077025012399e-05  -2.9364072228469295e-05  -1.8865113670370513e-05  -8.1362035993965954e-06  1.5007467588329822e-06  8.1361475579757950e-06  7.3622157916009900e-06  -8.3532972667753341e-07  6.1161876450882405e-06  -3.2777969212483533e-05  -8.9980685175584349e-05  -1.0588323668619757e-04  -4.6148437524411306e-05  1.0702164119683783e-04  3.5769479359498940e-04  6.9877790862097017e-04  1.1141435666655124e-03  1.5812313348518062e-03  2.0743121090556378e-03  2.5679310675776577e-03  3.0400517531775752e-03  3.4743704598371688e-03  3.8615442447413953e-03  4.1992951801150162e-03  4.4915892985015011e-03  4.7472022312089511e-03  4.9780111615618603e-03  5.1972910760060059e-03  5.4181953323622703e-03  5.6524994054217769e-03  5.9096161026919785e-03  6.1958622422565246e-03  6.5139681055827918e-03  6.8628518126647199e-03  7.2377009361545216e-03  7.6303791615392538e-03  8.0300897339092292e-03  8.4240950824679209e-03  8.7981671045547771e-03  9.1364293622826758e-03  9.4204122885723895e-03  9.6274221725266788e-03  9.7286331055804701e-03  9.6874577859907621e-03  9.4585231814147547e-03  8.9871968837408143e-03  8.2094730089913668e-03  7.0521914744863141e-03  5.4341240161427801e-03  3.2684184732201774e-03  4.6555604445878865e-04  -3.0633392523493658e-03  -7.4004703906278158e-03  -1.2612148490384762e-02  -1.8740028568383846e-02  -2.5795382922710827e-02  -3.3755505034010029e-02  -4.2561011354397368e-02  -5.2114493194057289e-02  -6.2281781652743819e-02  -7.2896542324966659e-02  -8.3767836310567154e-02  -9.4689430223216089e-02  -1.0544933328473324e-01  -1.1583824516282593e-01  -1.2565609211541215e-01  -1.3471637580740214e-01  -1.4284849553682483e-01  -1.4989847356677979e-01  -1.5572862595186668e-01  -1.6021671785353520e-01  -1.6325507800123015e-01  -1.6475005268136456e-01  -1.6462208318091925e-01  -1.6280659976187700e-01  -1.5925584019726663e-01  -1.5394161856558986e-01  -1.4685898111362028e-01  -1.3803058439813537e-01  -1.2751151258992349e-01  -1.1539411688270607e-01  -1.0181232051258073e-01  -8.6944710173711984e-02  -7.1015658118186789e-02  -5.4293729795635647e-02  -3.7086765093764483e-02  -1.9733299275537255e-02  -2.5904062720905792e-03  1.3981446700356207e-02  2.9635427963636541e-02  4.4055728017787649e-02  5.6973545545715917e-02  6.8179929483305243e-02  7.7534002345748712e-02  8.4965572262143657e-02  9.0471774149144632e-02  9.4108084225151198e-02  9.5974770377625390e-02  9.6200516885927290e-02  9.4925541459034729e-02  9.2286934991598346e-02  8.8409123240145618e-02  8.3402145743451089e-02  7.7369642519174470e-02  7.0426649882464151e-02  6.2724189229399416e-02  5.4473340409405997e-02  4.5957510199382837e-02  3.7521200505836107e-02  2.9530436001783591e-02  2.2313828304383176e-02  1.6105995743637254e-02  1.1015732867528322e-02  7.0284600200152605e-03  4.0362676929215800e-03  1.8794476840283758e-03  3.8408816410054623e-04  -6.1235219098862090e-04  -1.2480823271490426e-03  -1.6331761420606632e-03  -1.8507771281472654e-03  -1.9603379392757613e-03  -2.0014396600809350e-03  -1.9977121673622083e-03  -1.9607246350065925e-03  -1.8937462198081137e-03  -1.7952456451399261e-03  -1.6620186529468807e-03  -1.4918617838014156e-03  -1.2857570612381424e-03  -1.0494880546000078e-03  -7.9469203655058835e-04  -5.3913199199604768e-04  -3.0649379301831385e-04  -1.2408045474717849e-04  -1.9645011419743890e-05  4.4310679819021820e-06  5.8007157219118284e-06  -3.1277955663908732e-05  -6.4295353630713735e-05  -1.8095823210315357e-05  1.5127728922775574e-04  4.6795875272696467e-04  9.3554075018104381e-04  1.5405712738915101e-03  2.2560255038453743e-03  3.0459249289585171e-03  3.8704259965541975e-03  4.6909003950504104e-03  5.4742819157898581e-03  6.1961647550869718e-03  6.8423709777857044e-03  7.4090105624470722e-03  7.9012837017107592e-03  8.3314161345861733e-03  8.7161469042969803e-03  9.0741343965667215e-03  9.4235405139765881e-03  9.7799372879965891e-03  1.0154587665306081e-02  1.0553103597971868e-02  1.0974480541429769e-02  1.1410528365346666e-02  1.1845726481267022e-02  1.2257484891468348e-02  1.2616666093371419e-02  1.2888040731921515e-02  1.3030216304722241e-02  1.2994600359586763e-02  1.2723236768938388e-02  1.2145885232655678e-02  1.1177163408034235e-02  9.7145967983374333e-03  7.6381086419115563e-03  4.8113666249954079e-03  1.0855007202321902e-03  -3.6950845378124889e-03  -9.6849209838618250e-03  -1.7025522097423824e-02  -2.5828362982706445e-02  -3.6156733901708552e-02  -4.8011209410648820e-02  -6.1319854061208046e-02  -7.5932276257296885e-02  -9.1619333242349138e-02  -1.0808263323692527e-01  -1.2497495417553797e-01  -1.4192760963198531e-01  -1.5857842712394787e-01  -1.7459496493333609e-01  -1.8969010217893797e-01  -2.0362956771013335e-01  -2.1623259998342081e-01  -2.2736767689975970e-01  -2.3694533819122035e-01  -2.4490981378234544e-01  -2.5123070616192261e-01  -2.5589550901741409e-01  -2.5890336369905820e-01  -2.6026019196941741e-01  -2.5997518448269041e-01  -2.5805855400864675e-01  -2.5452044901781601e-01  -2.4937094239443933e-01  -2.4262104263250175e-01  -2.3428470133764173e-01  -2.2438179770781272e-01  -2.1294205443587430e-01  -2.0000977034540215e-01  -1.8564913750094136e-01  -1.6994974855669986e-01  -1.5303171257585768e-01  -1.3504962368338089e-01  -1.1619452195393659e-01  -9.6693019532447314e-02  -7.6802995042457106e-02  -5.6805703012953061e-02  -3.6994756765333252e-02  -1.7663088185919166e-02  9.1051709676460578e-04  1.8473546354793372e-02  3.4809039757252171e-02  4.9741126286795931e-02  6.3136666998455604e-02  7.4903474218450949e-02  8.4985862048397198e-02  9.3358198233901887e-02  1.0001683485816115e-01  1.0497057581736784e-01  1.0822999573813169e-01  1.0979663406676897e-01  1.0965434028009161e-01  1.0776661359879011e-01  1.0408516245205736e-01  9.8575081908267206e-02  9.1259292723245733e-02  8.2277247172649962e-02  7.1940230123734891e-02  6.0753089904425114e-02  4.9372321232023508e-02  3.8495175503058345e-02  2.8716984193285767e-02  2.0420139291188563e-02  1.3739524225398718e-02  8.6022445047718426e-03  4.8055715229075617e-03  2.0942612385378527e-03  2.1564942105096297e-04  -1.0505733636763449e-03  -1.8813170104477780e-03  -2.4097995567436761e-03  -2.7303564563189004e-03  -2.9052695279190499e-03  -2.9721313190081040e-03  -2.9510056370756479e-03  -2.8509740993875833e-03  -2.6758381781389435e-03  -2.4288675141085859e-03  -2.1165415208399862e-03  -1.7512560594763020e-03  -1.3529150730540709e-03  -9.4932877528755577e-04  -5.7501764996605172e-04  -2.6814667801242006e-04  -6.3317089626175680e-05  1.2412490155554080e-05  2.4059332148266772e-06  -1.3317350789742873e-05  1.0949669215447019e-05  1.5222395556955387e-04  4.5602740658421260e-04  9.4465762797589156e-04  1.6164862232655025e-03  2.4495241949255395e-03  3.4061190520028729e-03  4.4391311256067522e-03  5.4985372716011274e-03  6.5376010440648998e-03  7.5177776757510729e-03  8.4118411463534725e-03  9.2050890581414999e-03  9.8948081887426879e-03  1.0488397163777152e-02  1.1000624220316559e-02  1.1450475523667477e-02  1.1857959845203606e-02  1.2241118643860587e-02  1.2613377202785549e-02  1.2981286493740517e-02  1.3342660955238787e-02  1.3685114424639122e-02  1.3985014334996566e-02  1.4206870522436294e-02  1.4303092994053383e-02  1.4213873184397268e-02  1.3866724866883990e-02  1.3175105459246666e-02  1.2035783450393335e-02  1.0325301178476305e-02  7.8966404831403280e-03  4.5776606302562048e-03  1.7313652028855451e-04  -5.5284587808238344e-03  -1.2743848376538629e-02  -2.1678649998251132e-02  -3.2503369658377343e-02  -4.5324072761872919e-02  -6.0154847938430810e-02  -7.6896268672246471e-02  -9.5322247208487615e-02  -1.1508185412434528e-01  -1.3572250298553795e-01  -1.5673281957432217e-01  -1.7759547853505014e-01  -1.9783725497435375e-01  -2.1706582889870765e-01  -2.3498842754524485e-01  -2.5141306580578388e-01  -2.6623684025822197e-01  -2.7942699077869892e-01  -2.9099987295171081e-01  -3.0100148635313240e-01  -3.0949154470292706e-01  -3.1653171124578389e-01  -3.2217773193842847e-01  -3.2647475456853653e-01  -3.2945500603575328e-01  -3.3113708134584469e-01  -3.3152626622751691e-01  -3.3061550294512093e-01  -3.2838677766202568e-01  -3.2481284385026105e-01  -3.1985930023775944e-01  -3.1348711531119400e-01  -3.0565573952060465e-01  -2.9632696881663462e-01  -2.8546971530065518e-01  -2.7306578873615583e-01  -2.5911668245122227e-01  -2.4365117185539784e-01  -2.2673326557237380e-01  -2.0846971303877299e-01  -1.8901592031276335e-01  -1.6857885387420499e-01  -1.4741545634545947e-01  -1.2582540209749180e-01  -1.0413776449522069e-01  -8.2692311855133649e-02  -6.1817467717258927e-02  -4.1808086273300592e-02  -2.2906680001263981e-02  -5.2913098086451666e-03  1.0927974125465336e-02  2.5704082278454093e-02  3.9040889519117966e-02  5.0976997079822076e-02  6.1568028857076643e-02  7.0869452542540526e-02  7.8920687787053453e-02  8.5730209386016470e-02  9.1261118097759580e-02  9.5417731717150303e-02  9.8036334202901254e-02  9.8887048224162583e-02  9.7697711198892867e-02  9.4211652721878869e-02  8.8284056800621152e-02  8.0000956583376623e-02  6.9774036985024865e-02  5.8344782193742097e-02  4.6656643712908320e-02  3.5630584582277379e-02  2.5951376971924855e-02  1.7964839689859523e-02  1.1705132905231586e-02  6.9979975421416551e-03  3.5726590219967622e-03  1.1439455480396798e-03  -5.4213930222033987e-04  -1.6902749212790464e-03  -2.4537420041777077e-03  -2.9402200152179279e-03  -3.2207322818946270e-03  -3.3392533142846143e-03  -3.3217313584914757e-03  -3.1839435798704172e-03  -2.9379687624761105e-03  -2.5972317131323442e-03  -2.1801412536607561e-03  -1.7122828799037940e-03  -1.2271735192000810e-03  -7.6520176579272206e-04  -3.7164001277858875e-04  -9.2214394368979633e-05  1.8149041611252725e-05  -2.0943711371837028e-06  9.5742550399048599e-06  1.0832896552595592e-04  3.6604882921192601e-04  8.2450025279559526e-04  1.4992012353947221e-03  2.3786525905602910e-03  3.4284972457778529e-03  4.5977553680379857e-03  5.8268722265689479e-03  7.0560479493631907e-03  8.2325188706246100e-03  9.3157379065368015e-03  1.0279981382067699e-02  1.1114474928205600e-02  1.1821538401128576e-02  1.2413420717842603e-02  1.2908468252249689e-02  1.3327127320686215e-02  1.3688106584320847e-02  1.4004870838654343e-02  1.4282525915867841e-02  1.4515089746716496e-02  1.4683125568206352e-02  1.4751731821131079e-02  1.4668911168548508e-02  1.4364317794506282e-02  1.3748247472188531e-02  1.2710479126591470e-02  1.1118366566313920e-02  8.8138122194409644e-03  5.6096128628626337e-03  1.2869298998332362e-03  -4.4028880283396169e-03  -1.1728952724755602e-02  -2.0963042375537606e-02  -3.2352455612686869e-02  -4.6082651268030503e-02  -6.2234758721816538e-02  -8.0746731528507809e-02  -1.0138550696860434e-01  -1.2374015649675534e-01  -1.4724762334236266e-01  -1.7125321140378552e-01  -1.9509263246444605e-01  -2.1817274501090936e-01  -2.4002991285677580e-01  -2.6035530121508932e-01  -2.7898858157721251e-01  -2.9588991302336076e-01  -3.1110260266859985e-01  -3.2471676059873317e-01  -3.3684012538781982e-01  -3.4757821056293098e-01  -3.5702311117505919e-01  -3.6524891021221689e-01  -3.7231132396126360e-01  -3.7824956350824407e-01  -3.8308896913245627e-01  -3.8684354549479893e-01  -3.8951797137013866e-01  -3.9110895212326618e-01  -3.9160595276676924e-01  -3.9099143134200715e-01  -3.8924072527059422e-01  -3.8632175684926590e-01  -3.8219473731949183e-01  -3.7681207375793579e-01  -3.7011872328122508e-01  -3.6205329402162933e-01  -3.5255025133792378e-01  -3.4154363294181445e-01  -3.2897267655358142e-01  -3.1478967598891255e-01  -2.9897015598007748e-01  -2.8152504949953483e-01  -2.6251396197126409e-01  -2.4205787019391017e-01  -2.2034888402174890e-01  -1.9765424794559452e-01  -1.7431188831635000e-01  -1.5071575853485819e-01  -1.2729103159334187e-01  -1.0446153169793861e-01  -8.2614055122741031e-02  -6.2065619419841199e-02  -4.3039565684421278e-02  -2.5654656779303009e-02  -9.9283585617581001e-03  4.2076019282334806e-03  1.6883426476878731e-02  2.8263725629985248e-02  3.8519878967365938e-02  4.7804080483512527e-02  5.6225033553669451e-02  6.3824131018440061e-02  7.0551340532155365e-02  7.6242607167125970e-02  8.0605806598323435e-02  8.3229711167977796e-02  8.3637008108112226e-02  8.1399778749884327e-02  7.6311586050008609e-02  6.8561007701095564e-02  5.8805223890908316e-02  4.8058695504488345e-02  3.7419146797547105e-02  2.7773061907747323e-02  1.9631299003494029e-02  1.3135934122367998e-02  8.1724436726055873e-03  4.4992905404916683e-03  1.8446875766224293e-03  -3.8856533067366949e-05  -1.3519959714724122e-03  -2.2449733992886286e-03  -2.8234466389106690e-03  -3.1580024380575690e-03  -3.2942932134953419e-03  -3.2623165280361399e-03  -3.0842334776462442e-03  -2.7805662157278773e-03  -2.3748006833918052e-03  -1.8964255114910155e-03  -1.3825172933431122e-03  -8.7773596427578112e-04  -4.3414617929182379e-04  -1.0935370722910936e-04  2.1571436465111131e-05  -6.9711561601964300e-06  3.3995385127994012e-05  2.1710101524874973e-04  6.0910531175883953e-04  1.2446364186886256e-03  2.1279694909623423e-03  3.2323536634357689e-03  4.5054895148814037e-03  5.8781644551474709e-03  7.2750544789673679e-03  8.6253998284847849e-03  9.8715615320131671e-03  1.0974146406531188e-02  1.1913380145237726e-02  1.2687262363351487e-02  1.3307510733010610e-02  1.3794366064949543e-02  1.4171112807913003e-02  1.4458849890833033e-02  1.4671760408068862e-02  1.4812936024886489e-02  1.4870711335308897e-02  1.4815428708111098e-02  1.4596566062630829e-02  1.4140203436993857e-02  1.3346842401935234e-02  1.2089548422052752e-02  1.0212187433152969e-02  7.5273071211870834e-03  3.8134410224165529e-03  -1.1873152256931365e-03  -7.7683170006445784e-03  -1.6248730195256043e-02  -2.6950991203567594e-02  -4.0163113945294218e-02  -5.6086778784665073e-02  -7.4779549290437522e-02  -9.6103660673729926e-02  -1.1969456866422040e-01  -1.4496647468820209e-01  -1.7116866613242929e-01  -1.9748712881421127e-01  -2.2316289849124193e-01  -2.4758989328445541e-01  -2.7036584225373611e-01  -2.9129127307678454e-01  -3.1033008485745445e-01  -3.2755330195138749e-01  -3.4308527540906975e-01  -3.5706361278540788e-01  -3.6961575424964643e-01  -3.8084949901321208e-01  -3.9085253255574648e-01  -3.9969621743806893e-01  -4.0744029838238094e-01  -4.1413672698140375e-01  -4.1983200372597301e-01  -4.2456813177481223e-01  -4.2838256373868955e-01  -4.3130755226864731e-01  -4.3336922164967567e-01  -4.3458655496373017e-01  -4.3497038240274943e-01  -4.3452238208779737e-01  -4.3323406343137322e-01  -4.3108569374966765e-01  -4.2804514367483049e-01  -4.2406666966774947e-01  -4.1908972028581581e-01  -4.1303795455910181e-01  -4.0581879727430498e-01  -3.9732402545111178e-01  -3.8743206413784931e-01  -3.7601282985067258e-01  -3.6293602277265846e-01  -3.4808363038138479e-01  -3.3136694435875297e-01  -3.1274751421787811e-01  -2.9226016783785386e-01  -2.7003471172954552e-01  -2.4631160019794640e-01  -2.2144634003391900e-01  -1.9589825733411151e-01  -1.7020175895096071e-01  -1.4492203508742699e-01  -1.2060130097389798e-01  -9.7704825614149962e-02  -7.6576923099053007e-02  -5.7415173605997016e-02  -4.0266753645395878e-02  -2.5045325258376681e-02  -1.1562549724435598e-02  4.3336911795225378e-04  1.1218469720893583e-02  2.1056647666046202e-02  3.0166722275119413e-02  3.8691593204322659e-02  4.6667566269317062e-02  5.3993517979141294e-02  6.0404554734335057e-02  6.5464382772669583e-02  6.8602948276894657e-02  6.9230540782050931e-02  6.6935947428830814e-02  6.1712397705179389e-02  5.4085044416105468e-02  4.5022453957803563e-02  3.5645879493378253e-02  2.6900882419528056e-02  1.9366978524973561e-02  1.3252499057851218e-02  8.5024563979291222e-03  4.9262364298949179e-03  2.2936404871488993e-03  3.8975132815920915e-04  -9.6162208836618555e-04  -1.8933645110511125e-03  -2.4999448522780832e-03  -2.8460374387557327e-03  -2.9757820605812706e-03  -2.9212216437764977e-03  -2.7093558429454271e-03  -2.3676895618438588e-03  -1.9282927656522994e-03  -1.4305322070905064e-03  -9.2243679155961896e-04  -4.6214775717573616e-04  -1.1735497143497062e-04  2.3193033946976869e-05  -1.2188791258866511e-05  5.9912966086228287e-05  3.3781136050120661e-04  8.8503493399001004e-04  1.7264000257099419e-03  2.8498020010830349e-03  4.2062579772185939e-03  5.7180620659198472e-03  7.2913511516786468e-03  8.8310501070090683e-03  1.0254619530585358e-02  1.1501782218225983e-02  1.2538777204700991e-02  1.3357319730218985e-02  1.3969585971305928e-02  1.4400954037002381e-02  1.4682026641314561e-02  1.4840949560339408e-02  1.4896519977209335e-02  1.4852218426087603e-02  1.4691119403674390e-02  1.4371572662165386e-02  1.3823529065901828e-02  1.2945393069786785e-02  1.1601334733401261e-02  9.6190598096778275e-03  6.7880143763882498e-03  2.8579558131673023e-03  -2.4618745482088552e-03  -9.5012826003344972e-03  -1.8620472849682785e-02  -3.0187158986243950e-02  -4.4533330218561554e-02  -6.1890788846228631e-02  -8.2315958197169289e-02  -1.0562310403760360e-01  -1.3134716837832755e-01  -1.5875980567656733e-01  -1.8695417822814275e-01