<?xml version="1.0"?>
<VTKFile type="UnstructuredGrid"  version="0.1"  >
<UnstructuredGrid>
<Piece  NumberOfPoints="81" NumberOfCells="64">
<Points>
<DataArray  type="Float64"  NumberOfComponents="3"  format="ascii">0 0 0  0.125 0 0  0.25 0 0  0.375 0 0  0.5 0 0  0.625 0 0  0.75 0 0  0.875 0 0  1 0 0  0 0.125 0  0.125 0.125 0  0.25 0.125 0  0.375 0.125 0  0.5 0.125 0  0.625 0.125 0  0.75 0.125 0  0.875 0.125 0  1 0.125 0  0 0.25 0  0.125 0.25 0  0.25 0.25 0  0.375 0.25 0  0.5 0.25 0  0.625 0.25 0  0.75 0.25 0  0.875 0.25 0  1 0.25 0  0 0.375 0  0.125 0.375 0  0.25 0.375 0  0.375 0.375 0  0.5 0.375 0  0.625 0.375 0  0.75 0.375 0  0.875 0.375 0  1 0.375 0  0 0.5 0  0.125 0.5 0  0.25 0.5 0  0.375 0.5 0  0.5 0.5 0  0.625 0.5 0  0.75 0.5 0  0.875 0.5 0  1 0.5 0  0 0.625 0  0.125 0.625 0  0.25 0.625 0  0.375 0.625 0  0.5 0.625 0  0.625 0.625 0  0.75 0.625 0  0.875 0.625 0  1 0.625 0  0 0.75 0  0.125 0.75 0  0.25 0.75 0  0.375 0.75 0  0.5 0.75 0  0.625 0.75 0  0.75 0.75 0  0.875 0.75 0  1 0.75 0  0 0.875 0  0.125 0.875 0  0.25 0.875 0  0.375 0.875 0  0.5 0.875 0  0.625 0.875 0  0.75 0.875 0  0.875 0.875 0  1 0.875 0  0 1 0  0.125 1 0  0.25 1 0  0.375 1 0  0.5 1 0  0.625 1 0  0.75 1 0  0.875 1 0  1 1 0  </DataArray>
</Points>
<Cells>
<DataArray  type="UInt32"  Name="connectivity"  format="ascii">0 1 10 9  1 2 11 10  2 3 12 11  3 4 13 12  4 5 14 13  5 6 15 14  6 7 16 15  7 8 17 16  9 10 19 18  10 11 20 19  11 12 21 20  12 13 22 21  13 14 23 22  14 15 24 23  15 16 25 24  16 17 26 25  18 19 28 27  19 20 29 28  20 21 30 29  21 22 31 30  22 23 32 31  23 24 33 32  24 25 34 33  25 26 35 34  27 28 37 36  28 29 38 37  29 30 39 38  30 31 40 39  31 32 41 40  32 33 42 41  33 34 43 42  34 35 44 43  36 37 46 45  37 38 47 46  38 39 48 47  39 40 49 48  40 41 50 49  41 42 51 50  42 43 52 51  43 44 53 52  45 46 55 54  46 47 56 55  47 48 57 56  48 49 58 57  49 50 59 58  50 51 60 59  51 52 61 60  52 53 62 61  54 55 64 63  55 56 65 64  56 57 66 65  57 58 67 66  58 59 68 67  59 60 69 68  60 61 70 69  61 62 71 70  63 64 73 72  64 65 74 73  65 66 75 74  66 67 76 75  67 68 77 76  68 69 78 77  69 70 79 78  70 71 80 79  </DataArray>
<DataArray  type="UInt32"  Name="offsets"  format="ascii">4 8 12 16 20 24 28 32 36 40 44 48 52 56 60 64 68 72 76 80 84 88 92 96 100 104 108 112 116 120 124 128 132 136 140 144 148 152 156 160 164 168 172 176 180 184 188 192 196 200 204 208 212 216 220 224 228 232 236 240 244 248 252 256 </DataArray>
<DataArray  type="UInt8"  Name="types"  format="ascii">9 9 9 9 9 9 9 9 9 9 9 9 9 9 9 9 9 9 9 9 9 9 9 9 9 9 9 9 9 9 9 9 9 9 9 9 9 9 9 9 9 9 9 9 9 9 9 9 9 9 9 9 9 9 9 9 9 9 9 9 9 9 9 9 </DataArray>
</Cells>
<PointData  Scalars="u_sol"> 
<DataArray  type="Float64"  Name="u_sol"  format="ascii">1.8973538018496332e-19  -7.5894152073985330e-19  -2.4123498337802478e-18  -3.5243953317455749e-18  2.6158223089132012e-18  -2.0328790734103212e-18  -3.5914196963582325e-19  -1.3891340334970529e-18  2.1684043449710089e-19  -4.0299950435441004e-04  1.8914852920674729e-03  7.4289640181276293e-03  1.3523054325279371e-02  1.7560735434308444e-02  1.7391285224411634e-02  1.2268806689344259e-02  3.8145595647826238e-03  -8.7324396605005516e-04  -4.6535139798706401e-04  2.1778437428837914e-03  8.4973816777802989e-03  1.5401672497911441e-02  1.9965086470636956e-02  1.9754847808905057e-02  1.3970568421837156e-02  4.3654153280650579e-03  -1.0011629876886371e-03  -2.9088810693943728e-04  1.3609608862277544e-03  5.3059726000875013e-03  9.6064080098720323e-03  1.2441640216051025e-02  1.2308593910198158e-02  8.7009215019786691e-03  2.7158295227392420e-03  -6.2259587204736063e-04  6.3378618571041057e-08  -2.5665380772813690e-07  -6.4143971019567283e-07  -7.4507916028129675e-07  -1.0016057145215485e-06  -1.4612686315565003e-06  -1.3503507081819020e-06  -4.4692381823314964e-07  1.0356283238404726e-07  2.9095905203298776e-04  -1.3612402764729800e-03  -5.3065916896643658e-03  -9.6070149102124597e-03  -1.2442535108027775e-02  -1.2310194963102596e-02  -8.7025664011431466e-03  -2.7163987872070878e-03  6.2272947249294834e-04  4.6530353172133106e-04  -2.1776403961226379e-03  -8.4967790850330807e-03  -1.5400849938503021e-02  -1.9964120211132676e-02  -1.9753897285912078e-02  -1.3970082282791795e-02  -4.3653626674880512e-03  1.0011590508307272e-03  4.0291304691478978e-04  -1.8911525949766488e-03  -7.4283060819496233e-03  -1.3522524905526275e-02  -1.7559805196210570e-02  -1.7389173425610267e-02  -1.2266297578089495e-02  -3.8135960368064570e-03  8.7301073961698801e-04  4.3368086899420163e-19  -4.3368086899420168e-19  1.5178830414797058e-18  -5.8090226573536351e-18  -1.1728441206609222e-19  -5.8649040262196448e-18  5.2041704279304197e-18  2.1684043449710084e-19  2.4074124304840443e-35  </DataArray> 
</PointData> 
</Piece>
</UnstructuredGrid>
</VTKFile>