<?xml version="1.0"?>
<VTKFile type="UnstructuredGrid"  version="0.1"  >
<UnstructuredGrid>
<Piece  NumberOfPoints="81" NumberOfCells="64">
<Points>
<DataArray  type="Float64"  NumberOfComponents="3"  format="ascii">0 0 0  0.125 0 0  0.25 0 0  0.375 0 0  0.5 0 0  0.625 0 0  0.75 0 0  0.875 0 0  1 0 0  0 0.125 0  0.125 0.125 0  0.25 0.125 0  0.375 0.125 0  0.5 0.125 0  0.625 0.125 0  0.75 0.125 0  0.875 0.125 0  1 0.125 0  0 0.25 0  0.125 0.25 0  0.25 0.25 0  0.375 0.25 0  0.5 0.25 0  0.625 0.25 0  0.75 0.25 0  0.875 0.25 0  1 0.25 0  0 0.375 0  0.125 0.375 0  0.25 0.375 0  0.375 0.375 0  0.5 0.375 0  0.625 0.375 0  0.75 0.375 0  0.875 0.375 0  1 0.375 0  0 0.5 0  0.125 0.5 0  0.25 0.5 0  0.375 0.5 0  0.5 0.5 0  0.625 0.5 0  0.75 0.5 0  0.875 0.5 0  1 0.5 0  0 0.625 0  0.125 0.625 0  0.25 0.625 0  0.375 0.625 0  0.5 0.625 0  0.625 0.625 0  0.75 0.625 0  0.875 0.625 0  1 0.625 0  0 0.75 0  0.125 0.75 0  0.25 0.75 0  0.375 0.75 0  0.5 0.75 0  0.625 0.75 0  0.75 0.75 0  0.875 0.75 0  1 0.75 0  0 0.875 0  0.125 0.875 0  0.25 0.875 0  0.375 0.875 0  0.5 0.875 0  0.625 0.875 0  0.75 0.875 0  0.875 0.875 0  1 0.875 0  0 1 0  0.125 1 0  0.25 1 0  0.375 1 0  0.5 1 0  0.625 1 0  0.75 1 0  0.875 1 0  1 1 0  </DataArray>
</Points>
<Cells>
<DataArray  type="UInt32"  Name="connectivity"  format="ascii">0 1 10 9  1 2 11 10  2 3 12 11  3 4 13 12  4 5 14 13  5 6 15 14  6 7 16 15  7 8 17 16  9 10 19 18  10 11 20 19  11 12 21 20  12 13 22 21  13 14 23 22  14 15 24 23  15 16 25 24  16 17 26 25  18 19 28 27  19 20 29 28  20 21 30 29  21 22 31 30  22 23 32 31  23 24 33 32  24 25 34 33  25 26 35 34  27 28 37 36  28 29 38 37  29 30 39 38  30 31 40 39  31 32 41 40  32 33 42 41  33 34 43 42  34 35 44 43  36 37 46 45  37 38 47 46  38 39 48 47  39 40 49 48  40 41 50 49  41 42 51 50  42 43 52 51  43 44 53 52  45 46 55 54  46 47 56 55  47 48 57 56  48 49 58 57  49 50 59 58  50 51 60 59  51 52 61 60  52 53 62 61  54 55 64 63  55 56 65 64  56 57 66 65  57 58 67 66  58 59 68 67  59 60 69 68  60 61 70 69  61 62 71 70  63 64 73 72  64 65 74 73  65 66 75 74  66 67 76 75  67 68 77 76  68 69 78 77  69 70 79 78  70 71 80 79  </DataArray>
<DataArray  type="UInt32"  Name="offsets"  format="ascii">4 8 12 16 20 24 28 32 36 40 44 48 52 56 60 64 68 72 76 80 84 88 92 96 100 104 108 112 116 120 124 128 132 136 140 144 148 152 156 160 164 168 172 176 180 184 188 192 196 200 204 208 212 216 220 224 228 232 236 240 244 248 252 256 </DataArray>
<DataArray  type="UInt8"  Name="types"  format="ascii">9 9 9 9 9 9 9 9 9 9 9 9 9 9 9 9 9 9 9 9 9 9 9 9 9 9 9 9 9 9 9 9 9 9 9 9 9 9 9 9 9 9 9 9 9 9 9 9 9 9 9 9 9 9 9 9 9 9 9 9 9 9 9 9 </DataArray>
</Cells>
<PointData  Scalars="v_sol"> 
<DataArray  type="Float64"  Name="v_sol"  format="ascii">-7.5894152073985320e-19  4.3117645018578581e-04  6.2460432211963268e-04  5.4739477318710905e-04  2.2163966333722508e-04  -2.6797357336434734e-04  -7.3400583674353126e-04  -8.2283579881201540e-04  4.3368086899420177e-19  1.7347234759768075e-18  -1.9478391835256307e-03  -2.8152789265234032e-03  -2.4661573373049384e-03  -9.9749531713169302e-04  1.2080744691740474e-03  3.3049530629017622e-03  3.7137432304009321e-03  -2.1684043449710089e-18  -6.2883726004159257e-18  -6.9127960618885669e-03  -9.9340458915232500e-03  -8.6914134027141245e-03  -3.5057922937523885e-03  4.2647510433933208e-03  1.1631484776599308e-02  1.3147811822557524e-02  7.3725747729014302e-18  -1.3171514604051739e-19  -1.1112037116052978e-02  -1.5909432651157181e-02  -1.3901930331319009e-02  -5.5956267761218008e-03  6.8299754097557669e-03  1.8600684415792046e-02  2.1088367031406974e-02  -7.2638746690895506e-18  -4.6517324517926224e-19  -1.2725054213621013e-02  -1.8205827497247230e-02  -1.5900674845513659e-02  -6.3960786346582178e-03  7.8147547151298791e-03  2.1281972593913241e-02  2.4130907858581761e-02  6.9388939039072268e-18  1.1250463887691631e-18  -1.1111166074226238e-02  -1.5909174166940307e-02  -1.3901766936034959e-02  -5.5948939639531873e-03  6.8306554409980806e-03  1.8599629058734520e-02  2.1086716624396169e-02  2.8421785440558091e-18  -2.5014925582662278e-18  -6.9118801178668929e-03  -9.9339579321420183e-03  -8.6913319675880080e-03  -3.5047961428134999e-03  4.2659616816539533e-03  1.1630446555571062e-02  1.3145557916717697e-02  -2.7647155398380355e-18  -8.7689570807379268e-19  -1.9475451355981193e-03  -2.8153318128726701e-03  -2.4661680754002454e-03  -9.9706512865441557e-04  1.2087061547246120e-03  3.3046628348422399e-03  3.7127411614528267e-03  1.2197274440461923e-18  5.4210108624275212e-19  4.3110931746347602e-04  6.2462320506765452e-04  5.4740029933669537e-04  2.2153210836395256e-04  -2.6813835741455722e-04  -7.3394327125776834e-04  -8.2258330166875789e-04  -1.1384122811097795e-18  </DataArray> 
</PointData> 
</Piece>
</UnstructuredGrid>
</VTKFile>