<?xml version="1.0"?>
<VTKFile type="UnstructuredGrid"  version="0.1"  >
<UnstructuredGrid>
<Piece  NumberOfPoints="1089" NumberOfCells="1024">
<Points>
<DataArray  type="Float64"  NumberOfComponents="3"  format="ascii">0 0 0  0.03125 0 0  0.0625 0 0  0.09375 0 0  0.125 0 0  0.15625 0 0  0.1875 0 0  0.21875 0 0  0.25 0 0  0.28125 0 0  0.3125 0 0  0.34375 0 0  0.375 0 0  0.40625 0 0  0.4375 0 0  0.46875 0 0  0.5 0 0  0.53125 0 0  0.5625 0 0  0.59375 0 0  0.625 0 0  0.65625 0 0  0.6875 0 0  0.71875 0 0  0.75 0 0  0.78125 0 0  0.8125 0 0  0.84375 0 0  0.875 0 0  0.90625 0 0  0.9375 0 0  0.96875 0 0  1 0 0  0 0.03125 0  0.03125 0.03125 0  0.0625 0.03125 0  0.09375 0.03125 0  0.125 0.03125 0  0.15625 0.03125 0  0.1875 0.03125 0  0.21875 0.03125 0  0.25 0.03125 0  0.28125 0.03125 0  0.3125 0.03125 0  0.34375 0.03125 0  0.375 0.03125 0  0.40625 0.03125 0  0.4375 0.03125 0  0.46875 0.03125 0  0.5 0.03125 0  0.53125 0.03125 0  0.5625 0.03125 0  0.59375 0.03125 0  0.625 0.03125 0  0.65625 0.03125 0  0.6875 0.03125 0  0.71875 0.03125 0  0.75 0.03125 0  0.78125 0.03125 0  0.8125 0.03125 0  0.84375 0.03125 0  0.875 0.03125 0  0.90625 0.03125 0  0.9375 0.03125 0  0.96875 0.03125 0  1 0.03125 0  0 0.0625 0  0.03125 0.0625 0  0.0625 0.0625 0  0.09375 0.0625 0  0.125 0.0625 0  0.15625 0.0625 0  0.1875 0.0625 0  0.21875 0.0625 0  0.25 0.0625 0  0.28125 0.0625 0  0.3125 0.0625 0  0.34375 0.0625 0  0.375 0.0625 0  0.40625 0.0625 0  0.4375 0.0625 0  0.46875 0.0625 0  0.5 0.0625 0  0.53125 0.0625 0  0.5625 0.0625 0  0.59375 0.0625 0  0.625 0.0625 0  0.65625 0.0625 0  0.6875 0.0625 0  0.71875 0.0625 0  0.75 0.0625 0  0.78125 0.0625 0  0.8125 0.0625 0  0.84375 0.0625 0  0.875 0.0625 0  0.90625 0.0625 0  0.9375 0.0625 0  0.96875 0.0625 0  1 0.0625 0  0 0.09375 0  0.03125 0.09375 0  0.0625 0.09375 0  0.09375 0.09375 0  0.125 0.09375 0  0.15625 0.09375 0  0.1875 0.09375 0  0.21875 0.09375 0  0.25 0.09375 0  0.28125 0.09375 0  0.3125 0.09375 0  0.34375 0.09375 0  0.375 0.09375 0  0.40625 0.09375 0  0.4375 0.09375 0  0.46875 0.09375 0  0.5 0.09375 0  0.53125 0.09375 0  0.5625 0.09375 0  0.59375 0.09375 0  0.625 0.09375 0  0.65625 0.09375 0  0.6875 0.09375 0  0.71875 0.09375 0  0.75 0.09375 0  0.78125 0.09375 0  0.8125 0.09375 0  0.84375 0.09375 0  0.875 0.09375 0  0.90625 0.09375 0  0.9375 0.09375 0  0.96875 0.09375 0  1 0.09375 0  0 0.125 0  0.03125 0.125 0  0.0625 0.125 0  0.09375 0.125 0  0.125 0.125 0  0.15625 0.125 0  0.1875 0.125 0  0.21875 0.125 0  0.25 0.125 0  0.28125 0.125 0  0.3125 0.125 0  0.34375 0.125 0  0.375 0.125 0  0.40625 0.125 0  0.4375 0.125 0  0.46875 0.125 0  0.5 0.125 0  0.53125 0.125 0  0.5625 0.125 0  0.59375 0.125 0  0.625 0.125 0  0.65625 0.125 0  0.6875 0.125 0  0.71875 0.125 0  0.75 0.125 0  0.78125 0.125 0  0.8125 0.125 0  0.84375 0.125 0  0.875 0.125 0  0.90625 0.125 0  0.9375 0.125 0  0.96875 0.125 0  1 0.125 0  0 0.15625 0  0.03125 0.15625 0  0.0625 0.15625 0  0.09375 0.15625 0  0.125 0.15625 0  0.15625 0.15625 0  0.1875 0.15625 0  0.21875 0.15625 0  0.25 0.15625 0  0.28125 0.15625 0  0.3125 0.15625 0  0.34375 0.15625 0  0.375 0.15625 0  0.40625 0.15625 0  0.4375 0.15625 0  0.46875 0.15625 0  0.5 0.15625 0  0.53125 0.15625 0  0.5625 0.15625 0  0.59375 0.15625 0  0.625 0.15625 0  0.65625 0.15625 0  0.6875 0.15625 0  0.71875 0.15625 0  0.75 0.15625 0  0.78125 0.15625 0  0.8125 0.15625 0  0.84375 0.15625 0  0.875 0.15625 0  0.90625 0.15625 0  0.9375 0.15625 0  0.96875 0.15625 0  1 0.15625 0  0 0.1875 0  0.03125 0.1875 0  0.0625 0.1875 0  0.09375 0.1875 0  0.125 0.1875 0  0.15625 0.1875 0  0.1875 0.1875 0  0.21875 0.1875 0  0.25 0.1875 0  0.28125 0.1875 0  0.3125 0.1875 0  0.34375 0.1875 0  0.375 0.1875 0  0.40625 0.1875 0  0.4375 0.1875 0  0.46875 0.1875 0  0.5 0.1875 0  0.53125 0.1875 0  0.5625 0.1875 0  0.59375 0.1875 0  0.625 0.1875 0  0.65625 0.1875 0  0.6875 0.1875 0  0.71875 0.1875 0  0.75 0.1875 0  0.78125 0.1875 0  0.8125 0.1875 0  0.84375 0.1875 0  0.875 0.1875 0  0.90625 0.1875 0  0.9375 0.1875 0  0.96875 0.1875 0  1 0.1875 0  0 0.21875 0  0.03125 0.21875 0  0.0625 0.21875 0  0.09375 0.21875 0  0.125 0.21875 0  0.15625 0.21875 0  0.1875 0.21875 0  0.21875 0.21875 0  0.25 0.21875 0  0.28125 0.21875 0  0.3125 0.21875 0  0.34375 0.21875 0  0.375 0.21875 0  0.40625 0.21875 0  0.4375 0.21875 0  0.46875 0.21875 0  0.5 0.21875 0  0.53125 0.21875 0  0.5625 0.21875 0  0.59375 0.21875 0  0.625 0.21875 0  0.65625 0.21875 0  0.6875 0.21875 0  0.71875 0.21875 0  0.75 0.21875 0  0.78125 0.21875 0  0.8125 0.21875 0  0.84375 0.21875 0  0.875 0.21875 0  0.90625 0.21875 0  0.9375 0.21875 0  0.96875 0.21875 0  1 0.21875 0  0 0.25 0  0.03125 0.25 0  0.0625 0.25 0  0.09375 0.25 0  0.125 0.25 0  0.15625 0.25 0  0.1875 0.25 0  0.21875 0.25 0  0.25 0.25 0  0.28125 0.25 0  0.3125 0.25 0  0.34375 0.25 0  0.375 0.25 0  0.40625 0.25 0  0.4375 0.25 0  0.46875 0.25 0  0.5 0.25 0  0.53125 0.25 0  0.5625 0.25 0  0.59375 0.25 0  0.625 0.25 0  0.65625 0.25 0  0.6875 0.25 0  0.71875 0.25 0  0.75 0.25 0  0.78125 0.25 0  0.8125 0.25 0  0.84375 0.25 0  0.875 0.25 0  0.90625 0.25 0  0.9375 0.25 0  0.96875 0.25 0  1 0.25 0  0 0.28125 0  0.03125 0.28125 0  0.0625 0.28125 0  0.09375 0.28125 0  0.125 0.28125 0  0.15625 0.28125 0  0.1875 0.28125 0  0.21875 0.28125 0  0.25 0.28125 0  0.28125 0.28125 0  0.3125 0.28125 0  0.34375 0.28125 0  0.375 0.28125 0  0.40625 0.28125 0  0.4375 0.28125 0  0.46875 0.28125 0  0.5 0.28125 0  0.53125 0.28125 0  0.5625 0.28125 0  0.59375 0.28125 0  0.625 0.28125 0  0.65625 0.28125 0  0.6875 0.28125 0  0.71875 0.28125 0  0.75 0.28125 0  0.78125 0.28125 0  0.8125 0.28125 0  0.84375 0.28125 0  0.875 0.28125 0  0.90625 0.28125 0  0.9375 0.28125 0  0.96875 0.28125 0  1 0.28125 0  0 0.3125 0  0.03125 0.3125 0  0.0625 0.3125 0  0.09375 0.3125 0  0.125 0.3125 0  0.15625 0.3125 0  0.1875 0.3125 0  0.21875 0.3125 0  0.25 0.3125 0  0.28125 0.3125 0  0.3125 0.3125 0  0.34375 0.3125 0  0.375 0.3125 0  0.40625 0.3125 0  0.4375 0.3125 0  0.46875 0.3125 0  0.5 0.3125 0  0.53125 0.3125 0  0.5625 0.3125 0  0.59375 0.3125 0  0.625 0.3125 0  0.65625 0.3125 0  0.6875 0.3125 0  0.71875 0.3125 0  0.75 0.3125 0  0.78125 0.3125 0  0.8125 0.3125 0  0.84375 0.3125 0  0.875 0.3125 0  0.90625 0.3125 0  0.9375 0.3125 0  0.96875 0.3125 0  1 0.3125 0  0 0.34375 0  0.03125 0.34375 0  0.0625 0.34375 0  0.09375 0.34375 0  0.125 0.34375 0  0.15625 0.34375 0  0.1875 0.34375 0  0.21875 0.34375 0  0.25 0.34375 0  0.28125 0.34375 0  0.3125 0.34375 0  0.34375 0.34375 0  0.375 0.34375 0  0.40625 0.34375 0  0.4375 0.34375 0  0.46875 0.34375 0  0.5 0.34375 0  0.53125 0.34375 0  0.5625 0.34375 0  0.59375 0.34375 0  0.625 0.34375 0  0.65625 0.34375 0  0.6875 0.34375 0  0.71875 0.34375 0  0.75 0.34375 0  0.78125 0.34375 0  0.8125 0.34375 0  0.84375 0.34375 0  0.875 0.34375 0  0.90625 0.34375 0  0.9375 0.34375 0  0.96875 0.34375 0  1 0.34375 0  0 0.375 0  0.03125 0.375 0  0.0625 0.375 0  0.09375 0.375 0  0.125 0.375 0  0.15625 0.375 0  0.1875 0.375 0  0.21875 0.375 0  0.25 0.375 0  0.28125 0.375 0  0.3125 0.375 0  0.34375 0.375 0  0.375 0.375 0  0.40625 0.375 0  0.4375 0.375 0  0.46875 0.375 0  0.5 0.375 0  0.53125 0.375 0  0.5625 0.375 0  0.59375 0.375 0  0.625 0.375 0  0.65625 0.375 0  0.6875 0.375 0  0.71875 0.375 0  0.75 0.375 0  0.78125 0.375 0  0.8125 0.375 0  0.84375 0.375 0  0.875 0.375 0  0.90625 0.375 0  0.9375 0.375 0  0.96875 0.375 0  1 0.375 0  0 0.40625 0  0.03125 0.40625 0  0.0625 0.40625 0  0.09375 0.40625 0  0.125 0.40625 0  0.15625 0.40625 0  0.1875 0.40625 0  0.21875 0.40625 0  0.25 0.40625 0  0.28125 0.40625 0  0.3125 0.40625 0  0.34375 0.40625 0  0.375 0.40625 0  0.40625 0.40625 0  0.4375 0.40625 0  0.46875 0.40625 0  0.5 0.40625 0  0.53125 0.40625 0  0.5625 0.40625 0  0.59375 0.40625 0  0.625 0.40625 0  0.65625 0.40625 0  0.6875 0.40625 0  0.71875 0.40625 0  0.75 0.40625 0  0.78125 0.40625 0  0.8125 0.40625 0  0.84375 0.40625 0  0.875 0.40625 0  0.90625 0.40625 0  0.9375 0.40625 0  0.96875 0.40625 0  1 0.40625 0  0 0.4375 0  0.03125 0.4375 0  0.0625 0.4375 0  0.09375 0.4375 0  0.125 0.4375 0  0.15625 0.4375 0  0.1875 0.4375 0  0.21875 0.4375 0  0.25 0.4375 0  0.28125 0.4375 0  0.3125 0.4375 0  0.34375 0.4375 0  0.375 0.4375 0  0.40625 0.4375 0  0.4375 0.4375 0  0.46875 0.4375 0  0.5 0.4375 0  0.53125 0.4375 0  0.5625 0.4375 0  0.59375 0.4375 0  0.625 0.4375 0  0.65625 0.4375 0  0.6875 0.4375 0  0.71875 0.4375 0  0.75 0.4375 0  0.78125 0.4375 0  0.8125 0.4375 0  0.84375 0.4375 0  0.875 0.4375 0  0.90625 0.4375 0  0.9375 0.4375 0  0.96875 0.4375 0  1 0.4375 0  0 0.46875 0  0.03125 0.46875 0  0.0625 0.46875 0  0.09375 0.46875 0  0.125 0.46875 0  0.15625 0.46875 0  0.1875 0.46875 0  0.21875 0.46875 0  0.25 0.46875 0  0.28125 0.46875 0  0.3125 0.46875 0  0.34375 0.46875 0  0.375 0.46875 0  0.40625 0.46875 0  0.4375 0.46875 0  0.46875 0.46875 0  0.5 0.46875 0  0.53125 0.46875 0  0.5625 0.46875 0  0.59375 0.46875 0  0.625 0.46875 0  0.65625 0.46875 0  0.6875 0.46875 0  0.71875 0.46875 0  0.75 0.46875 0  0.78125 0.46875 0  0.8125 0.46875 0  0.84375 0.46875 0  0.875 0.46875 0  0.90625 0.46875 0  0.9375 0.46875 0  0.96875 0.46875 0  1 0.46875 0  0 0.5 0  0.03125 0.5 0  0.0625 0.5 0  0.09375 0.5 0  0.125 0.5 0  0.15625 0.5 0  0.1875 0.5 0  0.21875 0.5 0  0.25 0.5 0  0.28125 0.5 0  0.3125 0.5 0  0.34375 0.5 0  0.375 0.5 0  0.40625 0.5 0  0.4375 0.5 0  0.46875 0.5 0  0.5 0.5 0  0.53125 0.5 0  0.5625 0.5 0  0.59375 0.5 0  0.625 0.5 0  0.65625 0.5 0  0.6875 0.5 0  0.71875 0.5 0  0.75 0.5 0  0.78125 0.5 0  0.8125 0.5 0  0.84375 0.5 0  0.875 0.5 0  0.90625 0.5 0  0.9375 0.5 0  0.96875 0.5 0  1 0.5 0  0 0.53125 0  0.03125 0.53125 0  0.0625 0.53125 0  0.09375 0.53125 0  0.125 0.53125 0  0.15625 0.53125 0  0.1875 0.53125 0  0.21875 0.53125 0  0.25 0.53125 0  0.28125 0.53125 0  0.3125 0.53125 0  0.34375 0.53125 0  0.375 0.53125 0  0.40625 0.53125 0  0.4375 0.53125 0  0.46875 0.53125 0  0.5 0.53125 0  0.53125 0.53125 0  0.5625 0.53125 0  0.59375 0.53125 0  0.625 0.53125 0  0.65625 0.53125 0  0.6875 0.53125 0  0.71875 0.53125 0  0.75 0.53125 0  0.78125 0.531
[...]
<PointData  Scalars="u_sol"> 
<DataArray  type="Float64"  Name="u_sol"  format="ascii">4.4807963206366046e-05  -2.2865963040024582e-04  4.1062105750538968e-04  6.3826080871972691e-04  1.3647654491288842e-03  5.4020025833049516e-03  -1.3647975608213944e-03  -4.5739358054178100e-02  -7.3611952653330981e-02  -2.0689264309309667e-02  3.0838325053355466e-02  4.2894188885228231e-02  3.5825846724227513e-02  1.2804526355828835e-02  -1.5768810989569754e-02  -4.4244991177609466e-02  -6.5481952347075323e-02  -7.3651942387700398e-02  -6.4206238774584104e-02  -3.3784066450220973e-02  1.0615024461514388e-02  5.7372474002038445e-02  8.5464363102122395e-02  8.3705095588216233e-02  7.2053876099918437e-02  5.3900783632274608e-02  2.1599517431608976e-02  -3.0671407016099046e-03  -4.1631401962967003e-03  -2.9666992364251687e-03  -7.3976043818667879e-04  -7.4133700866141019e-05  -7.6661320739506369e-05  -2.1506107917737812e-04  9.1960608680662374e-04  4.7061492096042677e-03  9.5763280501313490e-03  1.3163081405761229e-02  1.7312625978829366e-02  4.7763647892231094e-02  6.5106265037033484e-02  6.1267184673765351e-02  1.5701340024686379e-02  -7.4402782009537025e-02  -1.7011282478849160e-01  -2.6627658945361227e-01  -3.4242954409923154e-01  -3.9515013243897357e-01  -4.2352712542975585e-01  -4.3086119586987953e-01  -4.1866086020906046e-01  -3.8646897469636193e-01  -3.3307080691876711e-01  -2.5416430595664513e-01  -1.5552045523312372e-01  -5.1237639707814898e-02  2.7104254606179528e-02  6.6500142805852785e-02  8.6392026670667574e-02  9.2271212569685263e-02  6.5395974518913713e-02  2.0498661875695792e-02  3.1206745980125448e-03  -2.6848456377073487e-03  -1.8890189143446058e-03  4.8831369840378249e-04  -5.1046744489898616e-04  2.4292208839638823e-03  1.0042281443647686e-02  1.2848335675772435e-02  3.1813285854771726e-03  -3.7652293632882642e-03  -3.0834267840696615e-02  -4.6053392636705527e-02  -1.0864683197176410e-01  -2.3874219653171788e-01  -3.4663868405426157e-01  -4.1992414738868516e-01  -4.5469258368098148e-01  -4.6992380894168229e-01  -4.7494812368181322e-01  -4.7621935674078431e-01  -4.7490384974737743e-01  -4.7196965522664114e-01  -4.6764618913489259e-01  -4.5978665652026557e-01  -4.4307996832082425e-01  -4.0059632286377267e-01  -3.1739096419963964e-01  -1.9179626775472222e-01  -8.0204059497447244e-02  -2.8794280194846728e-02  1.1464757265533887e-04  3.5347988328286298e-02  3.8810826450647089e-02  1.1480513031662976e-02  4.2072295444148776e-03  1.3377864596827496e-03  -4.5839702160678427e-04  -1.4501847537683890e-03  5.2474959937063217e-03  1.2996910997808189e-02  2.1194989106135074e-02  2.2981660187610161e-02  1.2454261584253111e-03  -4.7010710199710780e-02  -1.6943527643190018e-01  -3.0961072634810677e-01  -3.9082894979429739e-01  -4.2212620782688320e-01  -4.2312503100557303e-01  -4.1703722321993680e-01  -4.1071293336076126e-01  -4.0690378124661020e-01  -4.0364931247937436e-01  -4.0038721056139454e-01  -3.9696242695817202e-01  -3.9485376194188243e-01  -3.9816211058258649e-01  -4.1057168336029309e-01  -4.3288112804123202e-01  -4.4390560662366546e-01  -4.0210194230110297e-01  -2.7379573262071194e-01  -1.1630655943933821e-01  -3.7291736739348463e-02  -1.8565668856483974e-02  8.4310506063549426e-03  1.9196300163673005e-02  2.3941719793061553e-03  -2.8689563097485157e-03  5.0953887127160003e-04  -1.6912035948104768e-03  8.8744495389354583e-03  1.2791408661111831e-02  -9.2152939203908168e-03  -2.4831544920728917e-02  -7.3293184333852499e-02  -2.2070329146585843e-01  -3.5506544646839328e-01  -4.0095535882312749e-01  -3.9683753400001170e-01  -3.7827669768192873e-01  -3.6938343258016820e-01  -3.6943773303793603e-01  -3.7497895909301920e-01  -3.8031214483482623e-01  -3.8393914672695534e-01  -3.8469679890910652e-01  -3.8233690009553040e-01  -3.7677737415985252e-01  -3.6741100909391011e-01  -3.5705816105860144e-01  -3.5264816661040582e-01  -3.7126014093248111e-01  -4.1247993754713219e-01  -4.2840878956989537e-01  -3.3183545638016232e-01  -1.4488076164814750e-01  -2.6893526276031712e-02  -3.0415292467578549e-03  7.5548223077099175e-03  1.5951758933563719e-02  9.6513460321049696e-03  -1.4997535011880287e-03  -1.7834427874300755e-03  1.1754362504497523e-02  7.1416161777859448e-03  -8.8985308806490745e-03  -6.8709569298294595e-02  -2.1807273533984753e-01  -3.3010989334654067e-01  -3.4245836135248031e-01  -3.2831562427307109e-01  -3.2066236539692577e-01  -3.3078121239404296e-01  -3.4389621607652432e-01  -3.5260302249524261e-01  -3.5484731575524192e-01  -3.5432048405998157e-01  -3.5293512115333769e-01  -3.5192732177944747e-01  -3.5213277773529128e-01  -3.5393367975215650e-01  -3.5806428900881221e-01  -3.6159486594980716e-01  -3.5953139312005200e-01  -3.4489008671548754e-01  -3.3409957949369884e-01  -3.5886476542321011e-01  -4.0505665080465142e-01  -3.4548926918428197e-01  -1.4780903937792719e-01  -9.4977891736044377e-03  1.2530429665618703e-02  3.8475447044866002e-03  -3.6725464695041678e-03  4.1515345588739806e-04  8.9082192819438754e-04  4.3624683867481617e-03  -1.2996815257994317e-02  -5.9839926983227133e-02  -1.9301035526561086e-01  -2.9973638349290349e-01  -3.1609271415564327e-01  -3.1807068001605626e-01  -3.1936293306915675e-01  -3.2696267356130010e-01  -3.2812397954482025e-01  -3.2183649777949080e-01  -3.1608761945998548e-01  -3.1465729584084595e-01  -3.1644325868188844e-01  -3.1830408424424156e-01  -3.1921407161329740e-01  -3.1817926146027442e-01  -3.1552983316934330e-01  -3.1207508320027616e-01  -3.1117444520338217e-01  -3.1708282485393374e-01  -3.2981591421943734e-01  -3.3294273332328805e-01  -3.1735950428191362e-01  -3.1946413399702367e-01  -3.6913452358216320e-01  -3.2565479901582234e-01  -1.1932736370219026e-01  1.3922117662752717e-03  1.4860850209433337e-02  1.4574957043585782e-02  -3.3388200944284726e-03  1.3343826778780975e-03  -3.1403296870234037e-03  -3.4674758857264204e-02  -1.4022781176141697e-01  -2.5112743828191547e-01  -2.8113530871064357e-01  -2.7773056537545537e-01  -2.6411455799867828e-01  -2.6506153325800574e-01  -2.6911976903079954e-01  -2.6888264900002967e-01  -2.7663747779993508e-01  -2.8609807646834334e-01  -2.9325791885329300e-01  -2.9549135935641507e-01  -2.9648142436640523e-01  -2.9700157555720036e-01  -2.9830281278199028e-01  -3.0055506748797706e-01  -3.0247730490622982e-01  -3.0256375714359596e-01  -2.9716973403477726e-01  -2.9098182048394400e-01  -2.9342634425231889e-01  -3.0332699377853251e-01  -2.9506473836258490e-01  -2.9145738519266312e-01  -3.3721297188526245e-01  -2.7998065315194293e-01  -6.0527919717074233e-02  3.0588509883038482e-03  -1.2700397828691333e-02  5.6932001106728726e-03  2.7474053487686499e-03  -1.0227351655038405e-02  -8.7217587443425351e-02  -1.9694966045580140e-01  -2.5169265603055929e-01  -2.4882331323145601e-01  -2.3863189577971922e-01  -2.5485881149263667e-01  -2.6723137654218521e-01  -2.6348936754904112e-01  -2.6750104407176351e-01  -2.6771127100524150e-01  -2.6318362439767767e-01  -2.5826366090841024e-01  -2.5744043931804744e-01  -2.5823549088384784e-01  -2.5907341748656548e-01  -2.5918914178246516e-01  -2.5831233977458068e-01  -2.5831619975354037e-01  -2.6023554119790793e-01  -2.6691015194067791e-01  -2.7226224481578304e-01  -2.7206890072715384e-01  -2.6803615019979093e-01  -2.7207526270048582e-01  -2.6425340869167629e-01  -2.6856117429148474e-01  -3.0870193522322559e-01  -2.0292391188685785e-01  -1.7919856066216495e-03  2.0816934951812915e-02  -5.5620266488976729e-03  7.0781320156260786e-03  -3.6880293816324593e-02  -1.2591511167746336e-01  -2.0199797904970623e-01  -2.1297894961635139e-01  -2.0297516458079831e-01  -2.1577377984768922e-01  -2.1306895007807300e-01  -2.0034374650042872e-01  -2.0718230160161541e-01  -2.1258502039994140e-01  -2.1354571950017429e-01  -2.2042308036864230e-01  -2.2950922986109903e-01  -2.3542466923017463e-01  -2.3798676632439270e-01  -2.3975714776734786e-01  -2.4155224233157646e-01  -2.4353548451315160e-01  -2.4469212329074938e-01  -2.4339273627728295e-01  -2.3922575102415922e-01  -2.3628849419842135e-01  -2.3811110869656499e-01  -2.4265554153497232e-01  -2.4440154750846835e-01  -2.4313905146196746e-01  -2.3119068167339432e-01  -2.5080781756347575e-01  -2.6782737313789723e-01  -8.3604777962135224e-02  -6.2504868858263684e-03  -1.0941181295710626e-02  6.5316561237002274e-03  -5.3096873822447412e-02  -1.3667470825635786e-01  -1.7952360894805949e-01  -1.7695577496657020e-01  -1.8291705836642061e-01  -1.8356615112428898e-01  -1.8763525274834353e-01  -2.0504981767941913e-01  -2.0916383199948616e-01  -2.0488937885210651e-01  -2.0819090453142525e-01  -2.0924566918879542e-01  -2.0427859719927885e-01  -2.0031055040425380e-01  -1.9976923748823053e-01  -2.0056416281185480e-01  -2.0116624281261672e-01  -2.0176461421370676e-01  -2.0305958842813018e-01  -2.0679626550682698e-01  -2.1221731507472963e-01  -2.1632422525243114e-01  -2.1554161629309940e-01  -2.1116507975743054e-01  -2.1047124092593489e-01  -2.1756840739068975e-01  -2.1189747332217970e-01  -2.0208504934751637e-01  -2.3856296859294010e-01  -1.8345713790481363e-01  2.5533900803576721e-02  9.6464965669867727e-03  7.7862838954580555e-03  -5.7246374683381951e-02  -1.2232441680236150e-01  -1.4158780501646370e-01  -1.4023659435388736e-01  -1.4442329270680773e-01  -1.5236242003869538e-01  -1.5284793108889289e-01  -1.4519530955191812e-01  -1.4280027628705780e-01  -1.5131521566530606e-01  -1.5686154551743384e-01  -1.5699009974418035e-01  -1.6389457709826580e-01  -1.7295539173659630e-01  -1.7829825646439432e-01  -1.8104225141651079e-01  -1.8324435160831740e-01  -1.8522513725786025e-01  -1.8590419938289698e-01  -1.8452166243657891e-01  -1.8152052526204129e-01  -1.8014691991793891e-01  -1.8274445351552671e-01  -1.8885671839874058e-01  -1.8629334630531350e-01  -1.8237721859131228e-01  -1.8863317418883291e-01  -1.7601136820602906e-01  -1.8512406629211037e-01  -2.0032436397332756e-01  -4.7717802454318253e-02  1.0081041027571732e-02  5.9469050745425784e-03  -4.8993378357160319e-02  -9.6432094528592846e-02  -1.0859468870413216e-01  -1.1217470792388802e-01  -1.2341437926138969e-01  -1.2102702712152005e-01  -1.2808644722579210e-01  -1.4228946268703929e-01  -1.4903894636247589e-01  -1.4979470494463284e-01  -1.4595978527824049e-01  -1.4931707883463161e-01  -1.5101217378997983e-01  -1.4558264001390003e-01  -1.4213415566239732e-01  -1.4220932463770239e-01  -1.4327895893235415e-01  -1.4465698371197019e-01  -1.4721602541789683e-01  -1.5154397301779018e-01  -1.5655184449907655e-01  -1.6004989074664566e-01  -1.5843218042822532e-01  -1.5449371926806613e-01  -1.5837791397130643e-01  -1.5800265860193557e-01  -1.5732205340242836e-01  -1.5544447928306263e-01  -1.4556458159993127e-01  -1.7764655808650465e-01  -9.5068920788912908e-02  2.4560375795543116e-02  6.0395514089775400e-03  -3.5510789734399646e-02  -6.7864849356668061e-02  -7.4743659040036353e-02  -8.1138421943988931e-02  -8.3685893644775119e-02  -9.1731207977797199e-02  -9.5095458461745705e-02  -8.5068408122533204e-02  -8.4941183308564372e-02  -8.8659453126257393e-02  -9.5123797397945575e-02  -1.0064324926734762e-01  -1.0008714842482842e-01  -1.0690366576824208e-01  -1.1646973201796253e-01  -1.2132482291463041e-01  -1.2402920779449889e-01  -1.2599310084469120e-01  -1.2668274930766077e-01  -1.2590873654189938e-01  -1.2440567084399842e-01  -1.2393768740912031e-01  -1.2883004184286881e-01  -1.3301414778760662e-01  -1.3125583783737269e-01  -1.2949562792115940e-01  -1.2941117270065627e-01  -1.3044278795390088e-01  -1.1606627153153623e-01  -1.3162987170645596e-01  -1.0400900295265429e-01  2.5614494840292455e-02  4.4003711626493195e-03  -1.9743628314333333e-02  -4.1091008433646353e-02  -4.8984514681214189e-02  -5.5239691107356159e-02  -6.4111560085720512e-02  -6.3586953235397453e-02  -6.7835039311027537e-02  -8.2529979912831522e-02  -9.0328559137144215e-02  -8.9490069077112683e-02  -8.9885331503215662e-02  -8.7786891372604384e-02  -9.0016670685478958e-02  -9.2799811465823695e-02  -8.6860252415100744e-02  -8.3795310742767873e-02  -8.4950009366226181e-02  -8.7083851679743293e-02  -9.0470344965350044e-02  -9.4697164619796478e-02  -1.0045162957501087e-01  -1.0367336422397243e-01  -1.0224368776610240e-01  -1.0072874590569976e-01  -1.0416649784554920e-01  -1.0642200154990265e-01  -1.0217459657527729e-01  -1.0398029415335594e-01  -9.4892676708160331e-02  -9.5811670463481907e-02  -8.2746151933895631e-02  1.4928850085862642e-02  3.6571442632882985e-03  -5.2820653767501778e-03  -1.6885770164345580e-02  -2.0782048934944147e-02  -2.6637098794379629e-02  -2.6680379569381511e-02  -3.4508419424322485e-02  -3.6964609015606151e-02  -2.7611763840113088e-02  -2.4609621280291764e-02  -2.9091114811387861e-02  -3.4388205867445093e-02  -3.8040383788762490e-02  -4.3123009925221265e-02  -4.3177083414387460e-02  -4.9080870302126683e-02  -6.0047119190451810e-02  -6.4146459120041743e-02  -6.5925113742536290e-02  -6.7513736148026013e-02  -6.7712690720669225e-02  -6.6854376399583887e-02  -6.8814372175989930e-02  -7.4249372073536379e-02  -7.9634391905092264e-02  -7.7970045628154114e-02  -7.8724897858960460e-02  -7.9151996437872310e-02  -7.8441701185909110e-02  -7.2095204749549641e-02  -6.5099681894032493e-02  -6.5116470128511711e-02  7.7949368510910350e-03  1.3360822295996817e-03  8.7631913771626432e-03  5.6467792477510057e-03  1.1574870407971972e-03  -2.4471601201967791e-03  -9.0107171842003335e-03  -7.6351121036742232e-03  -9.9981937480825827e-03  -2.4339542601131567e-02  -3.1509068901482994e-02  -3.1337930050261011e-02  -2.9589339154400585e-02  -2.9474472897341356e-02  -2.9523641297619200e-02  -3.0223759938509561e-02  -3.3624184965229155e-02  -2.8160752028392154e-02  -2.4850397618174883e-02  -2.8571218168499387e-02  -3.1624844487911238e-02  -3.7475161317492581e-02  -4.3421843529035463e-02  -4.7676012556658563e-02  -4.7403442945299086e-02  -4.8074917401031814e-02  -5.3242767077687825e-02  -5.6480151424249371e-02  -5.5385243454917639e-02  -5.6022941839362933e-02  -5.4494159784306148e-02  -4.7206072659600577e-02  -4.5202144207379905e-02  2.6352627105853026e-03  -5.7596883632446286e-04  2.1150958076588223e-02  2.7368358714629951e-02  2.7582296192934889e-02  2.4794154010875542e-02  2.7427807052000149e-02  2.0965386386567576e-02  1.9819870661174535e-02  3.0343074077467766e-02  3.4547742008851634e-02  3.0824311518579769e-02  2.6312573585470456e-02  2.2447893200460735e-02  1.9786580914443904e-02  1.6387847512670240e-02  1.4533553837705012e-02  1.0167294475944728e-02  -1.6559496624378007e-03  -6.2552601079356165e-03  -6.9502513616157462e-03  -9.0882728559515975e-03  -9.5105669626998554e-03  -1.3258962433720352e-02  -2.0453677560494658e-02  -2.7285359874797063e-02  -2.8077104687380210e-02  -3.0875048000235335e-02  -3.4949481182130142e-02  -3.5365695581442425e-02  -3.5338070354494613e-02  -2.9687438659148975e-02  -3.5722602100478174e-02  8.2710150295732142e-04  -3.9991749349636719e-03  3.3314228417403488e-02  4.9637895297210050e-02  4.9356014734353859e-02  4.8566307597468307e-02  4.4386400235751286e-02  4.7516476803625307e-02  4.6384430774944890e-02  3.2653352410037757e-02  2.6358246819116728e-02  2.7536034590675565e-02  2.9870526192396381e-02  3.0888881514944032e-02  3.1115305710708661e-02  3.0451651767211055e-02  3.0218119873376862e-02  2.7832843453213164e-02  3.1138186247637277e-02  3.5471138464148913e-02  2.8096376455496307e-02  2.1274014918003622e-02  1.4512399408098280e-02  8.1919046060751032e-03  6.6956452762516406e-03  3.4433086611971400e-03  -4.5042676185199724e-03  -1.0320987959047961e-02  -1.3390720631865078e-02  -1.7241293315409415e-02  -2.1506295797016215e-02  -1.9788437207849743e-02  -2.3539262168675034e-02  -8.7119879381154341e-04  -6.9271398118308158e-03  4.3124499454960587e-02  7.2604132458139348e-02  7.7165280404225572e-02  7.6349342499871159e-02  8.1170674746050914e-02  7.5714162210601579e-02  7.6362154278633965e-02  8.8653817917212330e-02  9.3564965345168671e-02  9.0531346247193653e-02  8.6777044664285666e-02  8.3725191497644375e-02  8.1759735329982833e-02  7.9272491760022809e-02  7.6943139337880800e-02  7.4245876682669076e-02  6.9385735024515643e-02  5.7416384451544851e-02  5.0450975453137030e-02  5.2394512808079240e-02  4.8085514191495551e-02  4.2961250063063332e-02  3.3772875271925490e-02  2.3946775131918990e-02  2.0179356704799395e-02  1.3673027947372430e-02  5.3505132152017517e-03  2.0297489727049466e-04  -5.5921457175748569e-03  -7.4160277747068347e-03  -1.9465632767488542e-02  -1.2143929599510858e-03  -1.0326220288179479e-02  4.9658755046903931e-02  9.5461024180951135e-02  1.0122543082127755e-01  1.0095702413369054e-01  9.8019385424213734e-02  1.0309531151094956e-01  1.0195304888028869e-01  8.8550358215995606e-02  8.3818551334756200e-02  8.6350162354403473e-02  8.9845910702016696e-02  9.1531093567180616e-02  9.2430710491400420e-02  9.2646970530175371e-02  9.1900286988694693e-02  9.0584708020405927e-02  8.9013177961169587e-02  9.0066712589355766e-02  9.3213308472768971e-02  8.4112192862798155e-02  7.1082711800922946e-02  6.6612909196251971e-02  6.0453485048574312e-02  5.4959348487824515e-02  4.3615868631846619e-02  3.3283949271719696e-02  2.5739156050135697e-02  1.6116974122971132e-02  5.8249235781871293e-03  -5.6410298979922612e-04  -1.1136424976129275e-02  -2.0926351223886858e-03  -1.0428548338686056e-02  4.7139992090933246e-02  1.1451689372247095e-01  1.3138684791187566e-01  1.3052565302163374e-01  1.3563351964016915e-01  1.3059362258362234e-01  1.3320816479808523e-01  1.4746369733912634e-01  1.5245365105282471e-01  1.4994456726764402e-01  1.4706024381193189e-01  1.4562257613830612e-01  1.4404567135001500e-01  1.4296606867620948e-01  1.4113981563022382e-01  1.3858875479683824e-01  1.3487975628233048e-01  1.2850838076140125e-01  1.1707799827150989e-01  1.0742765276690072e-01  1.0922962977207537e-01  1.0308283663994113e-01  8.7311037880159745e-02  7.7216141564906193e-02  6.7808634477219604e-02  5.7298109986816011e-02  4.3938740046352030e-02  3.2226080990579498e-02  2.0235538028646489e-02  9.8122252798076379e-03  -9.5450873529806957e-03  -2.2230486143529483e-03  -8.6279663616633927e-03  3.3598297037312250e-02  1.2248651172446987e-01  1.5576069856656569e-01  1.5642600591608871e-01  1.5224781678602131e-01  1.5938940776681318e-01  1.5657191823660263e-01  1.4323269561174601e-01  1.4047606363328566e-01  1.4554432821541660e-01  1.4952618544955493e-01  1.5305607338632238e-01  1.5477650589014078e-01  1.5578366581296602e-01  1.5578671313037648e-01  1.5513480231516286e-01  1.5318336208586805e-01  1.5088439949505314e-01  1.4998365169786609e-01  1.4969862857876270e-01  1.3943579585084578e-01  1.2130361470726725e-01  1.1697968890588159e-01  1.1002831780053832e-01  9.1340544129572196e-02  7.8012990468466284e-02  6.4133899528821786e-02  4.7799818872893619e-02  3.0896299565085491e-02  1.5556536658610932e-02  -3.0403957271254549e-03  -2.9686539477096915e-03  -4.3295276425516201e-03  1.0553161074934240e-02  1.1158131214540240e-01  1.7906557867447079e-01  1.8857750961525876e-01  1.9056030686460940e-01  1.8509320688215666e-01  1.9016861405970675e-01  2.0666359234255230e-01  2.1006335033417156e-01  2.0880252382264644e-01  2.0746913887197233e-01  2.0736529015037342e-01  2.0810479370617066e-01  2.0831836022310032e-01  2.0761928862724366e-01  2.0575383230652533e-01  2.0262090671858649e-01  1.9796735097725535e-01  1.8994325927777650e-01  1.7791071086888949e-01  1.6582748708763284e-01  1.6259174444599853e-01  1.5243230447829950e-01  1.2954920966535358e-01  1.1768883114004719e-01  1.0394613200581736e-01  8.2769443396764328e-02  6.4296556442452649e-02  4.5411390226268965e-02  2.5373975992736882e-02  -2.5340093760778891e-03  -3.1906565812363564e-03  -1.1964922520089295e-03  2.7093173256962011e-03  7.6729090792788945e-02  1.7937362866808931e-01  2.1298815998337101e-01  2.0806804839656889e-01  2.1502674737454147e-01  2.0906114128649492e-01  1.9540598321292810e-01  1.9685456527124989e-01  2.0281726176530684e-01  2.1021040095883836e-01  2.1457602551932153e-01  2.1841875149737000e-01  2.2087499018069237e-01  2.2281880499395554e-01  2.23079