<?xml version="1.0"?>
<VTKFile type="UnstructuredGrid"  version="0.1"  >
<UnstructuredGrid>
<Piece  NumberOfPoints="1089" NumberOfCells="1024">
<Points>
<DataArray  type="Float64"  NumberOfComponents="3"  format="ascii">0 0 0  0.03125 0 0  0.0625 0 0  0.09375 0 0  0.125 0 0  0.15625 0 0  0.1875 0 0  0.21875 0 0  0.25 0 0  0.28125 0 0  0.3125 0 0  0.34375 0 0  0.375 0 0  0.40625 0 0  0.4375 0 0  0.46875 0 0  0.5 0 0  0.53125 0 0  0.5625 0 0  0.59375 0 0  0.625 0 0  0.65625 0 0  0.6875 0 0  0.71875 0 0  0.75 0 0  0.78125 0 0  0.8125 0 0  0.84375 0 0  0.875 0 0  0.90625 0 0  0.9375 0 0  0.96875 0 0  1 0 0  0 0.03125 0  0.03125 0.03125 0  0.0625 0.03125 0  0.09375 0.03125 0  0.125 0.03125 0  0.15625 0.03125 0  0.1875 0.03125 0  0.21875 0.03125 0  0.25 0.03125 0  0.28125 0.03125 0  0.3125 0.03125 0  0.34375 0.03125 0  0.375 0.03125 0  0.40625 0.03125 0  0.4375 0.03125 0  0.46875 0.03125 0  0.5 0.03125 0  0.53125 0.03125 0  0.5625 0.03125 0  0.59375 0.03125 0  0.625 0.03125 0  0.65625 0.03125 0  0.6875 0.03125 0  0.71875 0.03125 0  0.75 0.03125 0  0.78125 0.03125 0  0.8125 0.03125 0  0.84375 0.03125 0  0.875 0.03125 0  0.90625 0.03125 0  0.9375 0.03125 0  0.96875 0.03125 0  1 0.03125 0  0 0.0625 0  0.03125 0.0625 0  0.0625 0.0625 0  0.09375 0.0625 0  0.125 0.0625 0  0.15625 0.0625 0  0.1875 0.0625 0  0.21875 0.0625 0  0.25 0.0625 0  0.28125 0.0625 0  0.3125 0.0625 0  0.34375 0.0625 0  0.375 0.0625 0  0.40625 0.0625 0  0.4375 0.0625 0  0.46875 0.0625 0  0.5 0.0625 0  0.53125 0.0625 0  0.5625 0.0625 0  0.59375 0.0625 0  0.625 0.0625 0  0.65625 0.0625 0  0.6875 0.0625 0  0.71875 0.0625 0  0.75 0.0625 0  0.78125 0.0625 0  0.8125 0.0625 0  0.84375 0.0625 0  0.875 0.0625 0  0.90625 0.0625 0  0.9375 0.0625 0  0.96875 0.0625 0  1 0.0625 0  0 0.09375 0  0.03125 0.09375 0  0.0625 0.09375 0  0.09375 0.09375 0  0.125 0.09375 0  0.15625 0.09375 0  0.1875 0.09375 0  0.21875 0.09375 0  0.25 0.09375 0  0.28125 0.09375 0  0.3125 0.09375 0  0.34375 0.09375 0  0.375 0.09375 0  0.40625 0.09375 0  0.4375 0.09375 0  0.46875 0.09375 0  0.5 0.09375 0  0.53125 0.09375 0  0.5625 0.09375 0  0.59375 0.09375 0  0.625 0.09375 0  0.65625 0.09375 0  0.6875 0.09375 0  0.71875 0.09375 0  0.75 0.09375 0  0.78125 0.09375 0  0.8125 0.09375 0  0.84375 0.09375 0  0.875 0.09375 0  0.90625 0.09375 0  0.9375 0.09375 0  0.96875 0.09375 0  1 0.09375 0  0 0.125 0  0.03125 0.125 0  0.0625 0.125 0  0.09375 0.125 0  0.125 0.125 0  0.15625 0.125 0  0.1875 0.125 0  0.21875 0.125 0  0.25 0.125 0  0.28125 0.125 0  0.3125 0.125 0  0.34375 0.125 0  0.375 0.125 0  0.40625 0.125 0  0.4375 0.125 0  0.46875 0.125 0  0.5 0.125 0  0.53125 0.125 0  0.5625 0.125 0  0.59375 0.125 0  0.625 0.125 0  0.65625 0.125 0  0.6875 0.125 0  0.71875 0.125 0  0.75 0.125 0  0.78125 0.125 0  0.8125 0.125 0  0.84375 0.125 0  0.875 0.125 0  0.90625 0.125 0  0.9375 0.125 0  0.96875 0.125 0  1 0.125 0  0 0.15625 0  0.03125 0.15625 0  0.0625 0.15625 0  0.09375 0.15625 0  0.125 0.15625 0  0.15625 0.15625 0  0.1875 0.15625 0  0.21875 0.15625 0  0.25 0.15625 0  0.28125 0.15625 0  0.3125 0.15625 0  0.34375 0.15625 0  0.375 0.15625 0  0.40625 0.15625 0  0.4375 0.15625 0  0.46875 0.15625 0  0.5 0.15625 0  0.53125 0.15625 0  0.5625 0.15625 0  0.59375 0.15625 0  0.625 0.15625 0  0.65625 0.15625 0  0.6875 0.15625 0  0.71875 0.15625 0  0.75 0.15625 0  0.78125 0.15625 0  0.8125 0.15625 0  0.84375 0.15625 0  0.875 0.15625 0  0.90625 0.15625 0  0.9375 0.15625 0  0.96875 0.15625 0  1 0.15625 0  0 0.1875 0  0.03125 0.1875 0  0.0625 0.1875 0  0.09375 0.1875 0  0.125 0.1875 0  0.15625 0.1875 0  0.1875 0.1875 0  0.21875 0.1875 0  0.25 0.1875 0  0.28125 0.1875 0  0.3125 0.1875 0  0.34375 0.1875 0  0.375 0.1875 0  0.40625 0.1875 0  0.4375 0.1875 0  0.46875 0.1875 0  0.5 0.1875 0  0.53125 0.1875 0  0.5625 0.1875 0  0.59375 0.1875 0  0.625 0.1875 0  0.65625 0.1875 0  0.6875 0.1875 0  0.71875 0.1875 0  0.75 0.1875 0  0.78125 0.1875 0  0.8125 0.1875 0  0.84375 0.1875 0  0.875 0.1875 0  0.90625 0.1875 0  0.9375 0.1875 0  0.96875 0.1875 0  1 0.1875 0  0 0.21875 0  0.03125 0.21875 0  0.0625 0.21875 0  0.09375 0.21875 0  0.125 0.21875 0  0.15625 0.21875 0  0.1875 0.21875 0  0.21875 0.21875 0  0.25 0.21875 0  0.28125 0.21875 0  0.3125 0.21875 0  0.34375 0.21875 0  0.375 0.21875 0  0.40625 0.21875 0  0.4375 0.21875 0  0.46875 0.21875 0  0.5 0.21875 0  0.53125 0.21875 0  0.5625 0.21875 0  0.59375 0.21875 0  0.625 0.21875 0  0.65625 0.21875 0  0.6875 0.21875 0  0.71875 0.21875 0  0.75 0.21875 0  0.78125 0.21875 0  0.8125 0.21875 0  0.84375 0.21875 0  0.875 0.21875 0  0.90625 0.21875 0  0.9375 0.21875 0  0.96875 0.21875 0  1 0.21875 0  0 0.25 0  0.03125 0.25 0  0.0625 0.25 0  0.09375 0.25 0  0.125 0.25 0  0.15625 0.25 0  0.1875 0.25 0  0.21875 0.25 0  0.25 0.25 0  0.28125 0.25 0  0.3125 0.25 0  0.34375 0.25 0  0.375 0.25 0  0.40625 0.25 0  0.4375 0.25 0  0.46875 0.25 0  0.5 0.25 0  0.53125 0.25 0  0.5625 0.25 0  0.59375 0.25 0  0.625 0.25 0  0.65625 0.25 0  0.6875 0.25 0  0.71875 0.25 0  0.75 0.25 0  0.78125 0.25 0  0.8125 0.25 0  0.84375 0.25 0  0.875 0.25 0  0.90625 0.25 0  0.9375 0.25 0  0.96875 0.25 0  1 0.25 0  0 0.28125 0  0.03125 0.28125 0  0.0625 0.28125 0  0.09375 0.28125 0  0.125 0.28125 0  0.15625 0.28125 0  0.1875 0.28125 0  0.21875 0.28125 0  0.25 0.28125 0  0.28125 0.28125 0  0.3125 0.28125 0  0.34375 0.28125 0  0.375 0.28125 0  0.40625 0.28125 0  0.4375 0.28125 0  0.46875 0.28125 0  0.5 0.28125 0  0.53125 0.28125 0  0.5625 0.28125 0  0.59375 0.28125 0  0.625 0.28125 0  0.65625 0.28125 0  0.6875 0.28125 0  0.71875 0.28125 0  0.75 0.28125 0  0.78125 0.28125 0  0.8125 0.28125 0  0.84375 0.28125 0  0.875 0.28125 0  0.90625 0.28125 0  0.9375 0.28125 0  0.96875 0.28125 0  1 0.28125 0  0 0.3125 0  0.03125 0.3125 0  0.0625 0.3125 0  0.09375 0.3125 0  0.125 0.3125 0  0.15625 0.3125 0  0.1875 0.3125 0  0.21875 0.3125 0  0.25 0.3125 0  0.28125 0.3125 0  0.3125 0.3125 0  0.34375 0.3125 0  0.375 0.3125 0  0.40625 0.3125 0  0.4375 0.3125 0  0.46875 0.3125 0  0.5 0.3125 0  0.53125 0.3125 0  0.5625 0.3125 0  0.59375 0.3125 0  0.625 0.3125 0  0.65625 0.3125 0  0.6875 0.3125 0  0.71875 0.3125 0  0.75 0.3125 0  0.78125 0.3125 0  0.8125 0.3125 0  0.84375 0.3125 0  0.875 0.3125 0  0.90625 0.3125 0  0.9375 0.3125 0  0.96875 0.3125 0  1 0.3125 0  0 0.34375 0  0.03125 0.34375 0  0.0625 0.34375 0  0.09375 0.34375 0  0.125 0.34375 0  0.15625 0.34375 0  0.1875 0.34375 0  0.21875 0.34375 0  0.25 0.34375 0  0.28125 0.34375 0  0.3125 0.34375 0  0.34375 0.34375 0  0.375 0.34375 0  0.40625 0.34375 0  0.4375 0.34375 0  0.46875 0.34375 0  0.5 0.34375 0  0.53125 0.34375 0  0.5625 0.34375 0  0.59375 0.34375 0  0.625 0.34375 0  0.65625 0.34375 0  0.6875 0.34375 0  0.71875 0.34375 0  0.75 0.34375 0  0.78125 0.34375 0  0.8125 0.34375 0  0.84375 0.34375 0  0.875 0.34375 0  0.90625 0.34375 0  0.9375 0.34375 0  0.96875 0.34375 0  1 0.34375 0  0 0.375 0  0.03125 0.375 0  0.0625 0.375 0  0.09375 0.375 0  0.125 0.375 0  0.15625 0.375 0  0.1875 0.375 0  0.21875 0.375 0  0.25 0.375 0  0.28125 0.375 0  0.3125 0.375 0  0.34375 0.375 0  0.375 0.375 0  0.40625 0.375 0  0.4375 0.375 0  0.46875 0.375 0  0.5 0.375 0  0.53125 0.375 0  0.5625 0.375 0  0.59375 0.375 0  0.625 0.375 0  0.65625 0.375 0  0.6875 0.375 0  0.71875 0.375 0  0.75 0.375 0  0.78125 0.375 0  0.8125 0.375 0  0.84375 0.375 0  0.875 0.375 0  0.90625 0.375 0  0.9375 0.375 0  0.96875 0.375 0  1 0.375 0  0 0.40625 0  0.03125 0.40625 0  0.0625 0.40625 0  0.09375 0.40625 0  0.125 0.40625 0  0.15625 0.40625 0  0.1875 0.40625 0  0.21875 0.40625 0  0.25 0.40625 0  0.28125 0.40625 0  0.3125 0.40625 0  0.34375 0.40625 0  0.375 0.40625 0  0.40625 0.40625 0  0.4375 0.40625 0  0.46875 0.40625 0  0.5 0.40625 0  0.53125 0.40625 0  0.5625 0.40625 0  0.59375 0.40625 0  0.625 0.40625 0  0.65625 0.40625 0  0.6875 0.40625 0  0.71875 0.40625 0  0.75 0.40625 0  0.78125 0.40625 0  0.8125 0.40625 0  0.84375 0.40625 0  0.875 0.40625 0  0.90625 0.40625 0  0.9375 0.40625 0  0.96875 0.40625 0  1 0.40625 0  0 0.4375 0  0.03125 0.4375 0  0.0625 0.4375 0  0.09375 0.4375 0  0.125 0.4375 0  0.15625 0.4375 0  0.1875 0.4375 0  0.21875 0.4375 0  0.25 0.4375 0  0.28125 0.4375 0  0.3125 0.4375 0  0.34375 0.4375 0  0.375 0.4375 0  0.40625 0.4375 0  0.4375 0.4375 0  0.46875 0.4375 0  0.5 0.4375 0  0.53125 0.4375 0  0.5625 0.4375 0  0.59375 0.4375 0  0.625 0.4375 0  0.65625 0.4375 0  0.6875 0.4375 0  0.71875 0.4375 0  0.75 0.4375 0  0.78125 0.4375 0  0.8125 0.4375 0  0.84375 0.4375 0  0.875 0.4375 0  0.90625 0.4375 0  0.9375 0.4375 0  0.96875 0.4375 0  1 0.4375 0  0 0.46875 0  0.03125 0.46875 0  0.0625 0.46875 0  0.09375 0.46875 0  0.125 0.46875 0  0.15625 0.46875 0  0.1875 0.46875 0  0.21875 0.46875 0  0.25 0.46875 0  0.28125 0.46875 0  0.3125 0.46875 0  0.34375 0.46875 0  0.375 0.46875 0  0.40625 0.46875 0  0.4375 0.46875 0  0.46875 0.46875 0  0.5 0.46875 0  0.53125 0.46875 0  0.5625 0.46875 0  0.59375 0.46875 0  0.625 0.46875 0  0.65625 0.46875 0  0.6875 0.46875 0  0.71875 0.46875 0  0.75 0.46875 0  0.78125 0.46875 0  0.8125 0.46875 0  0.84375 0.46875 0  0.875 0.46875 0  0.90625 0.46875 0  0.9375 0.46875 0  0.96875 0.46875 0  1 0.46875 0  0 0.5 0  0.03125 0.5 0  0.0625 0.5 0  0.09375 0.5 0  0.125 0.5 0  0.15625 0.5 0  0.1875 0.5 0  0.21875 0.5 0  0.25 0.5 0  0.28125 0.5 0  0.3125 0.5 0  0.34375 0.5 0  0.375 0.5 0  0.40625 0.5 0  0.4375 0.5 0  0.46875 0.5 0  0.5 0.5 0  0.53125 0.5 0  0.5625 0.5 0  0.59375 0.5 0  0.625 0.5 0  0.65625 0.5 0  0.6875 0.5 0  0.71875 0.5 0  0.75 0.5 0  0.78125 0.5 0  0.8125 0.5 0  0.84375 0.5 0  0.875 0.5 0  0.90625 0.5 0  0.9375 0.5 0  0.96875 0.5 0  1 0.5 0  0 0.53125 0  0.03125 0.53125 0  0.0625 0.53125 0  0.09375 0.53125 0  0.125 0.53125 0  0.15625 0.53125 0  0.1875 0.53125 0  0.21875 0.53125 0  0.25 0.53125 0  0.28125 0.53125 0  0.3125 0.53125 0  0.34375 0.53125 0  0.375 0.53125 0  0.40625 0.53125 0  0.4375 0.53125 0  0.46875 0.53125 0  0.5 0.53125 0  0.53125 0.53125 0  0.5625 0.53125 0  0.59375 0.53125 0  0.625 0.53125 0  0.65625 0.53125 0  0.6875 0.53125 0  0.71875 0.53125 0  0.75 0.53125 0  0.78125 0.531
[...]
<PointData  Scalars="u_sol"> 
<DataArray  type="Float64"  Name="u_sol"  format="ascii">-3.0495326056921539e-05  -7.7813226707753355e-05  5.5031560819857658e-04  1.2244023959970774e-03  1.4417008099316315e-03  1.7132575874877522e-03  2.5362353794357675e-03  2.7031958893502070e-03  4.8684889358962501e-03  1.2014789558359291e-02  1.9118570230263494e-02  2.1947012810113301e-02  1.8934361900385346e-02  1.0009574300363764e-02  -2.9074743084443505e-03  -1.6575950256025911e-02  -2.7749719466989908e-02  -3.3687340308784029e-02  -3.1271824160453994e-02  -1.9375379052506955e-02  -2.6550797876760066e-04  2.0529979079818326e-02  3.5837202792159115e-02  4.0968681265209257e-02  3.6227202877796613e-02  2.5732225859046318e-02  1.3394931380695635e-02  3.9753246408802583e-03  1.5933416702332490e-04  -7.8830412818036908e-04  -6.4811526736619830e-04  -3.4356125509493979e-04  3.2066448902278035e-05  -4.0611379182561858e-04  1.9578190109055503e-03  7.7720316276293604e-03  1.2996813123983207e-02  1.5390181616357954e-02  1.5549662238463697e-02  1.5128184620222128e-02  1.4409749877268141e-02  6.5505044777287623e-03  -1.6851243022099248e-02  -5.9261553480506379e-02  -1.1639436111053163e-01  -1.7842254131644705e-01  -2.3499144998488375e-01  -2.7875120711660545e-01  -3.0589922939294945e-01  -3.1475886352084331e-01  -3.0467638131452818e-01  -2.7634208311456249e-01  -2.3085390730824970e-01  -1.7063134219156698e-01  -1.0125916200990716e-01  -3.2367507894247798e-02  2.4049552866865120e-02  5.9551723059592783e-02  7.3192555918783112e-02  6.8994758752290483e-02  5.1942978716289508e-02  3.1046540255948218e-02  1.5347740715804447e-02  5.9298794892542923e-03  1.1491422774271768e-03  -2.3769361820234796e-04  -7.6735853858498607e-04  3.7692657129310631e-03  1.1880324156170158e-02  1.6482969355235744e-02  1.5680963604166695e-02  1.1503088105390221e-02  1.1420611997638268e-03  -2.7098870895601843e-02  -8.2253026532560919e-02  -1.6023621503063690e-01  -2.4257146692526813e-01  -3.1343047883586433e-01  -3.6645816937926357e-01  -4.0216352457396892e-01  -4.2391757570662525e-01  -4.3497126458118074e-01  -4.3742247176151511e-01  -4.3193027771012393e-01  -4.1741437121933428e-01  -3.9167896040956113e-01  -3.5143117089578185e-01  -2.9367229937399947e-01  -2.1920927145047839e-01  -1.3686687576226095e-01  -6.3341971650727094e-02  -1.2184932663223286e-02  1.7771188943311651e-02  3.3190912142230626e-02  3.3479272375560622e-02  2.2902876776924437e-02  1.1632160675558919e-02  3.3382192590089457e-03  -6.1007325013549959e-04  -1.1814029556234122e-03  5.8983619063036107e-03  1.4378965847497271e-02  1.3207888067022146e-02  4.6846432750738938e-03  -1.3812894998391815e-02  -5.8184949919902910e-02  -1.3523615722530899e-01  -2.2754916805912070e-01  -3.1037790016526845e-01  -3.7136300719744242e-01  -4.1054694327663643e-01  -4.3373975738893944e-01  -4.4693090715293959e-01  -4.5409157866477312e-01  -4.5740562860810191e-01  -4.5803385449688389e-01  -4.5677356285273768e-01  -4.5421062410316970e-01  -4.4945184223186135e-01  -4.3911410054528788e-01  -4.1599096808857672e-01  -3.7000559035257863e-01  -2.9437479877920203e-01  -1.9613188296671355e-01  -1.0117969704718545e-01  -3.7610020339690617e-02  -6.3040099159152067e-03  1.0318540789959025e-02  1.5495090812623433e-02  1.0783696744351834e-02  3.4733903869804098e-03  -6.4620077876958743e-04  -1.4379769442929068e-03  7.8351482722629918e-03  1.1444799273415426e-02  2.5842631818130788e-04  -2.3258148527418667e-02  -7.5372786862044058e-02  -1.6108770015487320e-01  -2.5544839420867177e-01  -3.3132154681062365e-01  -3.7901958234106869e-01  -4.0277293034457695e-01  -4.1125516412936763e-01  -4.1173042222563316e-01  -4.0876026523235970e-01  -4.0487095009715468e-01  -4.0133187750545768e-01  -3.9879603608454789e-01  -3.9766815210864059e-01  -3.9844745202997678e-01  -4.0238255730566375e-01  -4.1036343389762303e-01  -4.2047622979811028e-01  -4.2381804906566189e-01  -4.0269362686437082e-01  -3.3868329591467505e-01  -2.3185350560080578e-01  -1.1563869907658880e-01  -3.7917972322716681e-02  -7.8373008716775237e-03  3.6374487984696803e-03  5.9405601530046412e-03  2.4537281214765784e-03  -4.8625464217320408e-04  -1.0259822167462457e-03  6.7755981650252121e-03  -2.1251395068201643e-04  -2.5280869367596541e-02  -7.6669039351352095e-02  -1.6160886448920572e-01  -2.5370803878399950e-01  -3.2291228117652593e-01  -3.5987454380160339e-01  -3.7189823318116899e-01  -3.7064378911010709e-01  -3.6514311616406758e-01  -3.6043332639045600e-01  -3.5818409612845087e-01  -3.5790798223219317e-01  -3.5829315338074463e-01  -3.5816647248037115e-01  -3.5702751245905168e-01  -3.5520578219074361e-01  -3.5364729131217393e-01  -3.5455194076658869e-01  -3.6156209225370933e-01  -3.7754761643380630e-01  -3.9714588320184036e-01  -3.9852882399138029e-01  -3.5051600889305179e-01  -2.4242644535072627e-01  -1.1238033974296791e-01  -2.7482242716307038e-02  -3.1336546041173881e-03  2.7105214001358594e-03  1.1523145602904631e-03  -2.7436114899773980e-04  4.9204889860160635e-04  5.7693283247562766e-04  -2.0191491940405502e-02  -6.5950221988199664e-02  -1.4325179898241189e-01  -2.3164472277847672e-01  -2.9772211058004833e-01  -3.2940239354687051e-01  -3.3548303706593785e-01  -3.3046005540027884e-01  -3.2495087170098003e-01  -3.2349204534806747e-01  -3.2571042394589911e-01  -3.2924737407422844e-01  -3.3222752681342560e-01  -3.3401479086581165e-01  -3.3476583550829692e-01  -3.3477837469842514e-01  -3.3407745092874008e-01  -3.3242638100119809e-01  -3.2949038875621800e-01  -3.2591383672188773e-01  -3.2566143157879673e-01  -3.3647510918256368e-01  -3.6026107532165241e-01  -3.7493245389398966e-01  -3.3736945585677947e-01  -2.2719067500914447e-01  -9.0700048419382368e-02  -1.2082663453973890e-02  3.3309528191006701e-04  1.6681797407394723e-03  -2.3012085700247726e-04  2.3559501578732174e-03  -9.5019976045890488e-03  -4.7089389239359042e-02  -1.1263845673870461e-01  -1.9508625792692821e-01  -2.6188124556435893e-01  -2.9427339948942777e-01  -2.9940335309947619e-01  -2.9383407311041343e-01  -2.8979277782178325e-01  -2.9108954911982632e-01  -2.9536570473327645e-01  -2.9925983377082527e-01  -3.0154950923919405e-01  -3.0268547245210292e-01  -3.0336484157439170e-01  -3.0393898735482061e-01  -3.0453795733043876e-01  -3.0531419494401019e-01  -3.0639920561231393e-01  -3.0751130568973950e-01  -3.0734450541318104e-01  -3.0393852753231421e-01  -2.9885301471608761e-01  -3.0271268425917219e-01  -3.2538979529584400e-01  -3.4512630382947157e-01  -3.0733312107115657e-01  -1.8857554378136224e-01  -5.4515915723362188e-02  8.0705731745134106e-04  2.2272586423652437e-03  -4.4658784294535466e-04  3.8599267630346780e-03  -2.1282897546717312e-02  -7.4939198502622137e-02  -1.4790009449662331e-01  -2.1667284300898643e-01  -2.5530655212680947e-01  -2.6396719663629398e-01  -2.5949435981163904e-01  -2.5632397229971338e-01  -2.5874502587080139e-01  -2.6339940418819285e-01  -2.6661892640858487e-01  -2.6809914685285291e-01  -2.6903007354655595e-01  -2.7002855316219826e-01  -2.7105434971554188e-01  -2.7195613678211267e-01  -2.7270073643781473e-01  -2.7335573126127016e-01  -2.7414198719391836e-01  -2.7551712892351932e-01  -2.7793804823569440e-01  -2.8050709421606868e-01  -2.7946686003795418e-01  -2.7293644147491886e-01  -2.7283963860320137e-01  -2.9508865120403938e-01  -3.1335619786042312e-01  -2.6191392499751392e-01  -1.2970748068105484e-01  -1.4989015803092498e-02  8.6623573131285839e-04  -5.7705898898020641e-04  4.9529260279415292e-03  -3.1902480968182198e-02  -9.4406985515652520e-02  -1.6183720029415408e-01  -2.1003663936076872e-01  -2.2723017499786288e-01  -2.2594920770563903e-01  -2.2307477531165262e-01  -2.2546161455802499e-01  -2.3019592545079604e-01  -2.3325050507348841e-01  -2.3470039096810352e-01  -2.3612064800335833e-01  -2.3789510147521778e-01  -2.3968767246960504e-01  -2.4127305663831011e-01  -2.4261976708812791e-01  -2.4376338324492006e-01  -2.4474450937789224e-01  -2.4553220811395385e-01  -2.4610113308537082e-01  -2.4678914341623881e-01  -2.4869585499238606e-01  -2.5205242829870117e-01  -2.5232056460210872e-01  -2.4513929215431771e-01  -2.4491409298987002e-01  -2.6927563819070649e-01  -2.7695421763749545e-01  -1.9707492136063653e-01  -5.9880566215633362e-02  6.2842252686015629e-03  -1.1582038897351588e-03  5.5033604199066959e-03  -3.7864923948225798e-02  -1.0045588039356114e-01  -1.5546767557696184e-01  -1.8569536004433324e-01  -1.9161376024782192e-01  -1.8974524161229064e-01  -1.9138160232576620e-01  -1.9617520201184074e-01  -1.9974319954431660e-01  -2.0156722233512742e-01  -2.0343480288355059e-01  -2.0568139233626878e-01  -2.0778550336645760e-01  -2.0956739199720076e-01  -2.1111688212659430e-01  -2.1254796589990438e-01  -2.1392924501429447e-01  -2.1529192471865266e-01  -2.1666497956869668e-01  -2.1796517112229333e-01  -2.1886359551508311e-01  -2.1924179928117271e-01  -2.2049741047706684e-01  -2.2378400906526935e-01  -2.2355807889902254e-01  -2.1534276071988182e-01  -2.1960368909660105e-01  -2.4552424914707566e-01  -2.2625512480939639e-01  -1.1070887206954015e-01  -1.4758968886933257e-03  8.8486086125010791e-04  5.5688648700092163e-03  -3.7765567442631265e-02  -9.3953651781900127e-02  -1.3554940946224547e-01  -1.5381731858672479e-01  -1.5609732285926614e-01  -1.5704028680827989e-01  -1.6146266129013179e-01  -1.6594398740519739e-01  -1.6848132983883096e-01  -1.7062975949309694e-01  -1.7313724589913509e-01  -1.7543600268891646e-01  -1.7737457872579868e-01  -1.7914179909362943e-01  -1.8084746024553436e-01  -1.8249686331866063e-01  -1.8408301460949819e-01  -1.8562243372329909e-01  -1.8714014822490235e-01  -1.8871079169653934e-01  -1.9036350258761250e-01  -1.9162070986003810e-01  -1.9191115565869854e-01  -1.9297176205241134e-01  -1.9605316872392270e-01  -1.9335122221040532e-01  -1.8523532349716249e-01  -1.9900700816591560e-01  -2.1510188462154567e-01  -1.4703639319245665e-01  -2.6823813212383849e-02  6.9204619817381571e-03  5.3017803579294160e-03  -3.2456216488618843e-02  -7.8925388626630538e-02  -1.0907800365884610e-01  -1.2071680280070456e-01  -1.2307709782570994e-01  -1.2654047163580176e-01  -1.3161800637469448e-01  -1.3528264421551614e-01  -1.3776588550117899e-01  -1.4040011286124252e-01  -1.4292716801622962e-01  -1.4506179766574764e-01  -1.4703899754342040e-01  -1.4897746372622253e-01  -1.5085911804367041e-01  -1.5268497842876264e-01  -1.5448398413730996e-01  -1.5626825687231513e-01  -1.5802552668215519e-01  -1.5971021150617015e-01  -1.6137234748353399e-01  -1.6318196229655391e-01  -1.6454772113695029e-01  -1.6468091543134097e-01  -1.6611204706867119e-01  -1.6824712506071057e-01  -1.6138379804938335e-01  -1.5901788444473833e-01  -1.8089267704970166e-01  -1.5759929896872832e-01  -4.7373255798883289e-02  1.2711538476429725e-02  4.7013020587542125e-03  -2.3860309595546799e-02  -5.9557959673290320e-02  -8.0820086256285728e-02  -8.9107859884901885e-02  -9.2459764760252208e-02  -9.7087333928903077e-02  -1.0179079144102504e-01  -1.0499676732809558e-01  -1.0768450654839416e-01  -1.1038570517896548e-01  -1.1273617460262264e-01  -1.1484734070725458e-01  -1.1690793193027389e-01  -1.1890854352092114e-01  -1.2086182932164637e-01  -1.2281711222427302e-01  -1.2479906318820437e-01  -1.2681728642051004e-01  -1.2887296343232640e-01  -1.3094259288966012e-01  -1.3289911205529706e-01  -1.3473081788961475e-01  -1.3669276892614238e-01  -1.3789440359912514e-01  -1.3798575417122641e-01  -1.4024503759500628e-01  -1.3884075898765871e-01  -1.2996974659251995e-01  -1.4142988207160803e-01  -1.4562120441562590e-01  -5.9898822391728293e-02  1.5066605141425323e-02  3.8186032817721354e-03  -1.3798216946136099e-02  -3.8778083130599918e-02  -5.3148869170337718e-02  -5.9604227672245581e-02  -6.3586348710742854e-02  -6.8269160608847898e-02  -7.2332728912065450e-02  -7.5297888468587537e-02  -7.7993172979727854e-02  -8.0511967460360392e-02  -8.2714248744495386e-02  -8.4799404442284343e-02  -8.6834880326971398e-02  -8.8832424480974378e-02  -9.0853395333241216e-02  -9.2936042370380542e-02  -9.5097682394137087e-02  -9.7347634331107977e-02  -9.9674730285819121e-02  -1.0206460121325782e-01  -1.0450260977880230e-01  -1.0679040345925384e-01  -1.0892284612287637e-01  -1.1106236392807542e-01  -1.1184144847575389e-01  -1.1273150012912420e-01  -1.1456122381420167e-01  -1.0724568855274375e-01  -1.0724133856978554e-01  -1.2169110078354881e-01  -6.2961625460725174e-02  1.3984338370306014e-02  2.5682478846652717e-03  -3.5661020204924977e-03  -1.8089868070217022e-02  -2.6839577818247942e-02  -3.1883717221381037e-02  -3.5898463654826095e-02  -4.0004482809832854e-02  -4.3388600093796637e-02  -4.6086366119557465e-02  -4.8566211536904290e-02  -5.0813330157921506e-02  -5.2849234898622879e-02  -5.4818879067677385e-02  -5.6762368557507610e-02  -5.8734742612898870e-02  -6.0794564686214858e-02  -6.2976491887766023e-02  -6.5307435345082501e-02  -6.7800802752105427e-02  -7.0455535797983360e-02  -7.3231354570742077e-02  -7.6085213419678194e-02  -7.8995777516488772e-02  -8.1688399525093047e-02  -8.4324501205259958e-02  -8.6459900389208311e-02  -8.7153471110072919e-02  -8.9647812391287038e-02  -8.6631941878402674e-02  -8.0459568483869759e-02  -9.5148149469871865e-02  -5.9208480680938119e-02  1.1402472162175693e-02  6.0668352554088935e-04  6.3725579593770934e-03  1.8923140306622273e-03  -1.7127353822937372e-03  -5.4078152048336907e-03  -8.9979667395033436e-03  -1.2251843438778236e-02  -1.4925862490361751e-02  -1.7249562504974759e-02  -1.9369052426619762e-02  -2.1287310591347867e-02  -2.3087047242226353e-02  -2.4860504091044167e-02  -2.6661228241613974e-02  -2.8559609580877346e-02  -3.0611372030431835e-02  -3.2861733051895284e-02  -3.5346274332318968e-02  -3.8084438586298827e-02  -4.1073158655457076e-02  -4.4304020353790274e-02  -4.7703837078059468e-02  -5.1219600359750317e-02  -5.4758575196924418e-02  -5.8053004293359245e-02  -6.1360624678935057e-02  -6.3238886923556670e-02  -6.5626645182909796e-02  -6.6567123363486080e-02  -5.9572013497271939e-02  -7.1129296497859984e-02  -5.1873096189651441e-02  8.6232300447247421e-03  -1.5471420183531793e-03  1.5740841064562791e-02  2.1256321533738826e-02  2.2596417151646682e-02  2.0508276372694478e-02  1.7420233122280578e-02  1.5125930905436090e-02  1.3197236607345111e-02  1.1341651386058473e-02  9.6601780149791830e-03  8.1389482083727115e-03  6.6496382322815033e-03  5.1429736378107802e-03  3.5456636691615783e-03  1.7791253777249565e-03  -2.1934496562972929e-04  -2.5090607338368503e-03  -5.1338284123156695e-03  -8.1178307838533775e-03  -1.1471134495415600e-02  -1.5174371272001433e-02  -1.9206955809377910e-02  -2.3456145642423560e-02  -2.7900112774737841e-02  -3.2257643398647638e-02  -3.6585318297700592e-02  -4.0302093566398460e-02  -4.3196067706796883e-02  -4.7007330586851324e-02  -4.2394980989605542e-02  -5.1146678237926207e-02  -4.3481028889290549e-02  6.2780004448361321e-03  -3.4905242892208370e-03  2.3880220911845260e-02  4.0273952065098116e-02  4.6363655181601265e-02  4.6418066702731360e-02  4.3646556030837634e-02  4.2223342578497559e-02  4.1071585598611328e-02  3.9752419772662188e-02  3.8543473515083457e-02  3.7488377340183475e-02  3.6390111922253651e-02  3.5220821176422723e-02  3.3904307323432463e-02  3.2338596454359075e-02  3.0451342219521678e-02  2.8172571040344315e-02  2.5444370743577450e-02  2.2227256908659693e-02  1.8496494360115509e-02  1.4262528363204829e-02  9.5570513568868261e-03  4.4324976027258541e-03  -9.9956886509582868e-04  -6.6555561360439270e-03  -1.2240966108629176e-02  -1.7862953029058614e-02  -2.2276573872428766e-02  -2.8187844408214733e-02  -2.7441887974901404e-02  -3.4992569322131101e-02  -3.5421577218965647e-02  4.4334772985085685e-03  -5.3404169068370470e-03  3.0030696660786508e-02  5.8554270930635574e-02  6.9822189317660294e-02  7.2627712062616118e-02  7.0135345098989221e-02  6.9154120833842328e-02  6.8844633391884485e-02  6.8110810727691651e-02  6.7393569094208391e-02  6.6849145197904303e-02  6.6243636907770242e-02  6.5486933566793817e-02  6.4531767824823810e-02  6.3250790766960524e-02  6.1542347582753856e-02  5.9323492820733265e-02  5.6522613132920077e-02  5.3077431566734924e-02  4.8973196402990998e-02  4.4181670567493794e-02  3.8734440671826950e-02  3.2661502419753914e-02  2.6066935960613446e-02  1.9024095904778084e-02  1.1806430327821697e-02  4.3298433460437092e-03  -2.4627885551046199e-03  -1.0185942501010943e-02  -1.3798943509118677e-02  -2.1844739635431990e-02  -2.8240650513207465e-02  3.0307595250421973e-03  -6.6854122871372029e-03  3.3148478525770936e-02  7.4891198207541060e-02  9.2853162809931278e-02  9.8988602569165848e-02  9.7197085609224132e-02  9.5968402183868221e-02  9.6400524453791520e-02  9.6382958051569309e-02  9.6167956628427212e-02  9.6165096375560449e-02  9.6155744052144443e-02  9.5933852307483872e-02  9.5430438473424264e-02  9.4534332103307528e-02  9.3104223277995571e-02  9.1029604144880455e-02  8.8220021526251621e-02  8.4609455496318348e-02  8.0137045137426796e-02  7.4764714786515890e-02  6.8536109946495394e-02  6.1432077466098550e-02  5.3551584806706742e-02  4.4986927533227590e-02  3.5894943526233430e-02  2.6376556952086929e-02  1.6848252455652767e-02  7.0182762556252158e-03  -8.7775739163848949e-04  -1.0925761544579230e-02  -2.1982585783897914e-02  1.9548913472996147e-03  -7.1413496271031168e-03  3.2259171330326519e-02  8.6862832689872341e-02  1.1462613321337636e-01  1.2516354276332600e-01  1.2505796646116443e-01  1.2309688534413349e-01  1.2373950206343239e-01  1.2465691637989863e-01  1.2505652690384175e-01  1.2560755062927589e-01  1.2628428893926644e-01  1.2675641367019416e-01  1.2684602682258483e-01  1.2643575049258624e-01  1.2538086135686016e-01  1.2353279579674996e-01  1.2077570272173144e-01  1.1700902141832123e-01  1.1216716992357977e-01  1.0624800981927265e-01  9.9199829917840321e-02  9.0976189875083727e-02  8.1745008323306195e-02  7.1492125413228608e-02  6.0376002287994515e-02  4.8500738551976307e-02  3.6143979743850474e-02  2.3582567751051890e-02  1.1815277528552687e-02  -1.6881100773691144e-03  -1.6464219882006796e-02  1.1101469607442832e-03  -6.1403299232461192e-03  2.6729697676314969e-02  9.1229901784008499e-02  1.3293209384841184e-01  1.5001839415380674e-01  1.5311198946967805e-01  1.5077863975867220e-01  1.5062198140763414e-01  1.5239472198709869e-01  1.5379595328876580e-01  1.5499702005771493e-01  1.5639782827063289e-01  1.5772309341700050e-01  1.5861704615368594e-01  1.5887148350080010e-01  1.5832675900102661e-01  1.5682927933596122e-01  1.5423560036985418e-01  1.5043757170820332e-01  1.4536101854180458e-01  1.3888755272664391e-01  1.3093500740167816e-01  1.2161336607805770e-01  1.1097082885487962e-01  9.8862816052754363e-02  8.5578819931933600e-02  7.1095607557629698e-02  5.5675108124455946e-02  4.0042409811268859e-02  2.4379850951550042e-02  6.3125549829354168e-03  -1.1486700228352515e-02  5.2854775293560729e-04  -4.2347805948112667e-03  1.7548435750082282e-02  8.4978458711214608e-02  1.4386139995897457e-01  1.7205217156825700e-01  1.8046771610312323e-01  1.7941428711558560e-01  1.7791132978626129e-01  1.7962399476263211e-01  1.8241480797253090e-01  1.8479435855756488e-01  1.8705599443085999e-01  1.8930487054447984e-01  1.9119340521441791e-01  1.9234565924932437e-01  1.9250964246937349e-01  1.9149405037457382e-01  1.8914778528117301e-01  1.8532773239503603e-01  1.7990133480135059e-01  1.7280801086886957e-01  1.6411012663880056e-01  1.5374827726894377e-01  1.4151933294890739e-01  1.2746929433945250e-01  1.1193542830948595e-01  9.4501136838536060e-02  7.5838178048631466e-02  5.6910140442388339e-02  3.6855172883316474e-02  1.3272517933766598e-02  -7.0475205849868201e-03  3.9101733911597582e-04  -1.5985838404969813e-03  7.1612651827180074e-03  6.7944325945588635e-02  1.4196537466219644e-01  1.8689640814082653e-01  2.0451239388291170e-01  2.0736989760749361e-01  2.0560819295304708e-01  2.0608843003071467e-01  2.0962847517513478e-01  2.1388287511362697e-01  2.1770040771966415e-01  2.2111130122368383e-01  2.2405189027084157e-01  2.2621534569436588e-01  2.2725641669433588e-01  2.269168