<?xml version="1.0"?>
<VTKFile type="UnstructuredGrid"  version="0.1"  >
<UnstructuredGrid>
<Piece  NumberOfPoints="1089" NumberOfCells="1024">
<Points>
<DataArray  type="Float64"  NumberOfComponents="3"  format="ascii">0 0 0  0.03125 0 0  0.0625 0 0  0.09375 0 0  0.125 0 0  0.15625 0 0  0.1875 0 0  0.21875 0 0  0.25 0 0  0.28125 0 0  0.3125 0 0  0.34375 0 0  0.375 0 0  0.40625 0 0  0.4375 0 0  0.46875 0 0  0.5 0 0  0.53125 0 0  0.5625 0 0  0.59375 0 0  0.625 0 0  0.65625 0 0  0.6875 0 0  0.71875 0 0  0.75 0 0  0.78125 0 0  0.8125 0 0  0.84375 0 0  0.875 0 0  0.90625 0 0  0.9375 0 0  0.96875 0 0  1 0 0  0 0.03125 0  0.03125 0.03125 0  0.0625 0.03125 0  0.09375 0.03125 0  0.125 0.03125 0  0.15625 0.03125 0  0.1875 0.03125 0  0.21875 0.03125 0  0.25 0.03125 0  0.28125 0.03125 0  0.3125 0.03125 0  0.34375 0.03125 0  0.375 0.03125 0  0.40625 0.03125 0  0.4375 0.03125 0  0.46875 0.03125 0  0.5 0.03125 0  0.53125 0.03125 0  0.5625 0.03125 0  0.59375 0.03125 0  0.625 0.03125 0  0.65625 0.03125 0  0.6875 0.03125 0  0.71875 0.03125 0  0.75 0.03125 0  0.78125 0.03125 0  0.8125 0.03125 0  0.84375 0.03125 0  0.875 0.03125 0  0.90625 0.03125 0  0.9375 0.03125 0  0.96875 0.03125 0  1 0.03125 0  0 0.0625 0  0.03125 0.0625 0  0.0625 0.0625 0  0.09375 0.0625 0  0.125 0.0625 0  0.15625 0.0625 0  0.1875 0.0625 0  0.21875 0.0625 0  0.25 0.0625 0  0.28125 0.0625 0  0.3125 0.0625 0  0.34375 0.0625 0  0.375 0.0625 0  0.40625 0.0625 0  0.4375 0.0625 0  0.46875 0.0625 0  0.5 0.0625 0  0.53125 0.0625 0  0.5625 0.0625 0  0.59375 0.0625 0  0.625 0.0625 0  0.65625 0.0625 0  0.6875 0.0625 0  0.71875 0.0625 0  0.75 0.0625 0  0.78125 0.0625 0  0.8125 0.0625 0  0.84375 0.0625 0  0.875 0.0625 0  0.90625 0.0625 0  0.9375 0.0625 0  0.96875 0.0625 0  1 0.0625 0  0 0.09375 0  0.03125 0.09375 0  0.0625 0.09375 0  0.09375 0.09375 0  0.125 0.09375 0  0.15625 0.09375 0  0.1875 0.09375 0  0.21875 0.09375 0  0.25 0.09375 0  0.28125 0.09375 0  0.3125 0.09375 0  0.34375 0.09375 0  0.375 0.09375 0  0.40625 0.09375 0  0.4375 0.09375 0  0.46875 0.09375 0  0.5 0.09375 0  0.53125 0.09375 0  0.5625 0.09375 0  0.59375 0.09375 0  0.625 0.09375 0  0.65625 0.09375 0  0.6875 0.09375 0  0.71875 0.09375 0  0.75 0.09375 0  0.78125 0.09375 0  0.8125 0.09375 0  0.84375 0.09375 0  0.875 0.09375 0  0.90625 0.09375 0  0.9375 0.09375 0  0.96875 0.09375 0  1 0.09375 0  0 0.125 0  0.03125 0.125 0  0.0625 0.125 0  0.09375 0.125 0  0.125 0.125 0  0.15625 0.125 0  0.1875 0.125 0  0.21875 0.125 0  0.25 0.125 0  0.28125 0.125 0  0.3125 0.125 0  0.34375 0.125 0  0.375 0.125 0  0.40625 0.125 0  0.4375 0.125 0  0.46875 0.125 0  0.5 0.125 0  0.53125 0.125 0  0.5625 0.125 0  0.59375 0.125 0  0.625 0.125 0  0.65625 0.125 0  0.6875 0.125 0  0.71875 0.125 0  0.75 0.125 0  0.78125 0.125 0  0.8125 0.125 0  0.84375 0.125 0  0.875 0.125 0  0.90625 0.125 0  0.9375 0.125 0  0.96875 0.125 0  1 0.125 0  0 0.15625 0  0.03125 0.15625 0  0.0625 0.15625 0  0.09375 0.15625 0  0.125 0.15625 0  0.15625 0.15625 0  0.1875 0.15625 0  0.21875 0.15625 0  0.25 0.15625 0  0.28125 0.15625 0  0.3125 0.15625 0  0.34375 0.15625 0  0.375 0.15625 0  0.40625 0.15625 0  0.4375 0.15625 0  0.46875 0.15625 0  0.5 0.15625 0  0.53125 0.15625 0  0.5625 0.15625 0  0.59375 0.15625 0  0.625 0.15625 0  0.65625 0.15625 0  0.6875 0.15625 0  0.71875 0.15625 0  0.75 0.15625 0  0.78125 0.15625 0  0.8125 0.15625 0  0.84375 0.15625 0  0.875 0.15625 0  0.90625 0.15625 0  0.9375 0.15625 0  0.96875 0.15625 0  1 0.15625 0  0 0.1875 0  0.03125 0.1875 0  0.0625 0.1875 0  0.09375 0.1875 0  0.125 0.1875 0  0.15625 0.1875 0  0.1875 0.1875 0  0.21875 0.1875 0  0.25 0.1875 0  0.28125 0.1875 0  0.3125 0.1875 0  0.34375 0.1875 0  0.375 0.1875 0  0.40625 0.1875 0  0.4375 0.1875 0  0.46875 0.1875 0  0.5 0.1875 0  0.53125 0.1875 0  0.5625 0.1875 0  0.59375 0.1875 0  0.625 0.1875 0  0.65625 0.1875 0  0.6875 0.1875 0  0.71875 0.1875 0  0.75 0.1875 0  0.78125 0.1875 0  0.8125 0.1875 0  0.84375 0.1875 0  0.875 0.1875 0  0.90625 0.1875 0  0.9375 0.1875 0  0.96875 0.1875 0  1 0.1875 0  0 0.21875 0  0.03125 0.21875 0  0.0625 0.21875 0  0.09375 0.21875 0  0.125 0.21875 0  0.15625 0.21875 0  0.1875 0.21875 0  0.21875 0.21875 0  0.25 0.21875 0  0.28125 0.21875 0  0.3125 0.21875 0  0.34375 0.21875 0  0.375 0.21875 0  0.40625 0.21875 0  0.4375 0.21875 0  0.46875 0.21875 0  0.5 0.21875 0  0.53125 0.21875 0  0.5625 0.21875 0  0.59375 0.21875 0  0.625 0.21875 0  0.65625 0.21875 0  0.6875 0.21875 0  0.71875 0.21875 0  0.75 0.21875 0  0.78125 0.21875 0  0.8125 0.21875 0  0.84375 0.21875 0  0.875 0.21875 0  0.90625 0.21875 0  0.9375 0.21875 0  0.96875 0.21875 0  1 0.21875 0  0 0.25 0  0.03125 0.25 0  0.0625 0.25 0  0.09375 0.25 0  0.125 0.25 0  0.15625 0.25 0  0.1875 0.25 0  0.21875 0.25 0  0.25 0.25 0  0.28125 0.25 0  0.3125 0.25 0  0.34375 0.25 0  0.375 0.25 0  0.40625 0.25 0  0.4375 0.25 0  0.46875 0.25 0  0.5 0.25 0  0.53125 0.25 0  0.5625 0.25 0  0.59375 0.25 0  0.625 0.25 0  0.65625 0.25 0  0.6875 0.25 0  0.71875 0.25 0  0.75 0.25 0  0.78125 0.25 0  0.8125 0.25 0  0.84375 0.25 0  0.875 0.25 0  0.90625 0.25 0  0.9375 0.25 0  0.96875 0.25 0  1 0.25 0  0 0.28125 0  0.03125 0.28125 0  0.0625 0.28125 0  0.09375 0.28125 0  0.125 0.28125 0  0.15625 0.28125 0  0.1875 0.28125 0  0.21875 0.28125 0  0.25 0.28125 0  0.28125 0.28125 0  0.3125 0.28125 0  0.34375 0.28125 0  0.375 0.28125 0  0.40625 0.28125 0  0.4375 0.28125 0  0.46875 0.28125 0  0.5 0.28125 0  0.53125 0.28125 0  0.5625 0.28125 0  0.59375 0.28125 0  0.625 0.28125 0  0.65625 0.28125 0  0.6875 0.28125 0  0.71875 0.28125 0  0.75 0.28125 0  0.78125 0.28125 0  0.8125 0.28125 0  0.84375 0.28125 0  0.875 0.28125 0  0.90625 0.28125 0  0.9375 0.28125 0  0.96875 0.28125 0  1 0.28125 0  0 0.3125 0  0.03125 0.3125 0  0.0625 0.3125 0  0.09375 0.3125 0  0.125 0.3125 0  0.15625 0.3125 0  0.1875 0.3125 0  0.21875 0.3125 0  0.25 0.3125 0  0.28125 0.3125 0  0.3125 0.3125 0  0.34375 0.3125 0  0.375 0.3125 0  0.40625 0.3125 0  0.4375 0.3125 0  0.46875 0.3125 0  0.5 0.3125 0  0.53125 0.3125 0  0.5625 0.3125 0  0.59375 0.3125 0  0.625 0.3125 0  0.65625 0.3125 0  0.6875 0.3125 0  0.71875 0.3125 0  0.75 0.3125 0  0.78125 0.3125 0  0.8125 0.3125 0  0.84375 0.3125 0  0.875 0.3125 0  0.90625 0.3125 0  0.9375 0.3125 0  0.96875 0.3125 0  1 0.3125 0  0 0.34375 0  0.03125 0.34375 0  0.0625 0.34375 0  0.09375 0.34375 0  0.125 0.34375 0  0.15625 0.34375 0  0.1875 0.34375 0  0.21875 0.34375 0  0.25 0.34375 0  0.28125 0.34375 0  0.3125 0.34375 0  0.34375 0.34375 0  0.375 0.34375 0  0.40625 0.34375 0  0.4375 0.34375 0  0.46875 0.34375 0  0.5 0.34375 0  0.53125 0.34375 0  0.5625 0.34375 0  0.59375 0.34375 0  0.625 0.34375 0  0.65625 0.34375 0  0.6875 0.34375 0  0.71875 0.34375 0  0.75 0.34375 0  0.78125 0.34375 0  0.8125 0.34375 0  0.84375 0.34375 0  0.875 0.34375 0  0.90625 0.34375 0  0.9375 0.34375 0  0.96875 0.34375 0  1 0.34375 0  0 0.375 0  0.03125 0.375 0  0.0625 0.375 0  0.09375 0.375 0  0.125 0.375 0  0.15625 0.375 0  0.1875 0.375 0  0.21875 0.375 0  0.25 0.375 0  0.28125 0.375 0  0.3125 0.375 0  0.34375 0.375 0  0.375 0.375 0  0.40625 0.375 0  0.4375 0.375 0  0.46875 0.375 0  0.5 0.375 0  0.53125 0.375 0  0.5625 0.375 0  0.59375 0.375 0  0.625 0.375 0  0.65625 0.375 0  0.6875 0.375 0  0.71875 0.375 0  0.75 0.375 0  0.78125 0.375 0  0.8125 0.375 0  0.84375 0.375 0  0.875 0.375 0  0.90625 0.375 0  0.9375 0.375 0  0.96875 0.375 0  1 0.375 0  0 0.40625 0  0.03125 0.40625 0  0.0625 0.40625 0  0.09375 0.40625 0  0.125 0.40625 0  0.15625 0.40625 0  0.1875 0.40625 0  0.21875 0.40625 0  0.25 0.40625 0  0.28125 0.40625 0  0.3125 0.40625 0  0.34375 0.40625 0  0.375 0.40625 0  0.40625 0.40625 0  0.4375 0.40625 0  0.46875 0.40625 0  0.5 0.40625 0  0.53125 0.40625 0  0.5625 0.40625 0  0.59375 0.40625 0  0.625 0.40625 0  0.65625 0.40625 0  0.6875 0.40625 0  0.71875 0.40625 0  0.75 0.40625 0  0.78125 0.40625 0  0.8125 0.40625 0  0.84375 0.40625 0  0.875 0.40625 0  0.90625 0.40625 0  0.9375 0.40625 0  0.96875 0.40625 0  1 0.40625 0  0 0.4375 0  0.03125 0.4375 0  0.0625 0.4375 0  0.09375 0.4375 0  0.125 0.4375 0  0.15625 0.4375 0  0.1875 0.4375 0  0.21875 0.4375 0  0.25 0.4375 0  0.28125 0.4375 0  0.3125 0.4375 0  0.34375 0.4375 0  0.375 0.4375 0  0.40625 0.4375 0  0.4375 0.4375 0  0.46875 0.4375 0  0.5 0.4375 0  0.53125 0.4375 0  0.5625 0.4375 0  0.59375 0.4375 0  0.625 0.4375 0  0.65625 0.4375 0  0.6875 0.4375 0  0.71875 0.4375 0  0.75 0.4375 0  0.78125 0.4375 0  0.8125 0.4375 0  0.84375 0.4375 0  0.875 0.4375 0  0.90625 0.4375 0  0.9375 0.4375 0  0.96875 0.4375 0  1 0.4375 0  0 0.46875 0  0.03125 0.46875 0  0.0625 0.46875 0  0.09375 0.46875 0  0.125 0.46875 0  0.15625 0.46875 0  0.1875 0.46875 0  0.21875 0.46875 0  0.25 0.46875 0  0.28125 0.46875 0  0.3125 0.46875 0  0.34375 0.46875 0  0.375 0.46875 0  0.40625 0.46875 0  0.4375 0.46875 0  0.46875 0.46875 0  0.5 0.46875 0  0.53125 0.46875 0  0.5625 0.46875 0  0.59375 0.46875 0  0.625 0.46875 0  0.65625 0.46875 0  0.6875 0.46875 0  0.71875 0.46875 0  0.75 0.46875 0  0.78125 0.46875 0  0.8125 0.46875 0  0.84375 0.46875 0  0.875 0.46875 0  0.90625 0.46875 0  0.9375 0.46875 0  0.96875 0.46875 0  1 0.46875 0  0 0.5 0  0.03125 0.5 0  0.0625 0.5 0  0.09375 0.5 0  0.125 0.5 0  0.15625 0.5 0  0.1875 0.5 0  0.21875 0.5 0  0.25 0.5 0  0.28125 0.5 0  0.3125 0.5 0  0.34375 0.5 0  0.375 0.5 0  0.40625 0.5 0  0.4375 0.5 0  0.46875 0.5 0  0.5 0.5 0  0.53125 0.5 0  0.5625 0.5 0  0.59375 0.5 0  0.625 0.5 0  0.65625 0.5 0  0.6875 0.5 0  0.71875 0.5 0  0.75 0.5 0  0.78125 0.5 0  0.8125 0.5 0  0.84375 0.5 0  0.875 0.5 0  0.90625 0.5 0  0.9375 0.5 0  0.96875 0.5 0  1 0.5 0  0 0.53125 0  0.03125 0.53125 0  0.0625 0.53125 0  0.09375 0.53125 0  0.125 0.53125 0  0.15625 0.53125 0  0.1875 0.53125 0  0.21875 0.53125 0  0.25 0.53125 0  0.28125 0.53125 0  0.3125 0.53125 0  0.34375 0.53125 0  0.375 0.53125 0  0.40625 0.53125 0  0.4375 0.53125 0  0.46875 0.53125 0  0.5 0.53125 0  0.53125 0.53125 0  0.5625 0.53125 0  0.59375 0.53125 0  0.625 0.53125 0  0.65625 0.53125 0  0.6875 0.53125 0  0.71875 0.53125 0  0.75 0.53125 0  0.78125 0.531
[...]
<PointData  Scalars="v_sol"> 
<DataArray  type="Float64"  Name="v_sol"  format="ascii">7.6405604704962191e-06  4.0925105324777919e-04  5.9372696943229089e-04  4.1261176416807903e-04  1.4427599143083220e-04  5.9263661537927748e-05  1.3488722076954556e-04  4.3565761892325326e-05  -3.4363736658115713e-04  -1.7129096890743426e-03  -4.1929281771754491e-03  -6.3700948583106506e-03  -7.0820707304973408e-03  -6.1619418918198105e-03  -4.1776754401371685e-03  -1.7345846038726413e-03  9.1828076735271029e-04  3.0841883411044341e-03  4.4752434409822900e-03  5.4947981517360616e-03  6.1461336451608378e-03  6.3839309071423867e-03  5.8955383048475678e-03  4.6276453968111938e-03  2.6255184955068346e-03  -2.6802676563636088e-04  -2.4560110953534093e-03  -2.8186823943089157e-03  -2.1482837632248908e-03  -1.1992388630205557e-03  -5.8041830658032056e-04  -2.1824374044175800e-04  2.4135065349248303e-05  2.1196627158952212e-04  -2.1652117109336321e-03  -3.2678319403502370e-03  -2.0886739287382279e-03  -5.9613856204359240e-04  -4.0529064333068467e-04  -6.7581275112064043e-04  2.2143631638648142e-04  1.2977910183355815e-03  6.8096428231757345e-03  1.7891151401753829e-02  2.7671644772462797e-02  3.2635259710710816e-02  3.1919402096767614e-02  2.6207840915815579e-02  1.6773937717142511e-02  4.7944177517599031e-03  -8.6184753052224172e-03  -2.2521777934518185e-02  -3.5112501835916084e-02  -4.3300583739642323e-02  -4.3779310912354513e-02  -3.5109704824919166e-02  -2.0230657773537865e-02  -5.0126122369907843e-03  7.4289670520265895e-03  1.4927262122319773e-02  1.4858864421800226e-02  1.0222416952953879e-02  5.5988514058856074e-03  2.7142886029870401e-03  9.2837844543840610e-04  -2.4590512850226556e-04  -2.3218691684510229e-05  -8.3462496104243170e-03  -1.0245676786170334e-02  -5.3693397294161159e-03  -2.8558107375358508e-04  2.3744894896806736e-03  5.7650214743278630e-03  1.7996387615439677e-02  4.2002939129654991e-02  6.9047575010028048e-02  8.8591392869794741e-02  9.4885065750775335e-02  8.8282040373293444e-02  7.2564391986431359e-02  5.1641183936471532e-02  2.8061594660936752e-02  2.8396075782663177e-03  -2.4046613354937050e-02  -5.2194153844614420e-02  -7.9860092623590936e-02  -1.0313893666437933e-01  -1.1543569081560522e-01  -1.0977872424724526e-01  -8.4409580928808375e-02  -4.8046411973791010e-02  -1.5465404305448712e-02  7.7825075460908584e-03  2.2593212134958535e-02  2.5439643374725197e-02  1.9146237658090405e-02  1.1719204088799577e-02  5.8510104929329213e-03  1.0112026514433397e-04  -8.7815556192503573e-04  -1.7568893107211082e-02  -1.6361166152388383e-02  -3.7971016842669675e-03  6.5140574560517911e-03  1.7183009827673273e-02  4.3371897459478316e-02  8.5938045388628342e-02  1.2726598940286515e-01  1.5157857193757074e-01  1.5466765164894772e-01  1.4134755157666942e-01  1.1848104437011689e-01  9.1296229112294888e-02  6.2482208761966335e-02  3.2897383563547315e-02  2.4150453600754545e-03  -2.9384452596354617e-02  -6.3246160511113050e-02  -9.9418791924398314e-02  -1.3616656838995747e-01  -1.6806550400344356e-01  -1.8479025879900235e-01  -1.7427427787284941e-01  -1.3238808348836248e-01  -7.3194234221673315e-02  -2.3700380661392604e-02  5.4036370791355065e-03  2.2048008939193106e-02  2.6168421335583076e-02  2.0417364464347616e-02  1.2869679257372767e-02  8.9830850088641102e-04  -3.2944477666465495e-03  -2.8668163532525583e-02  -1.6409542938176116e-02  6.7807007204829413e-03  2.7819803067856395e-02  6.6625752656451431e-02  1.2552248894228671e-01  1.7890602402406613e-01  2.0620492669271326e-01  2.0554708445369002e-01  1.8600271076263702e-01  1.5720389437779447e-01  1.2528637570164428e-01  9.3144060992722030e-02  6.1791501486802528e-02  3.1249472191957610e-02  9.8163830626685623e-04  -2.9935837617703569e-02  -6.2441894140730807e-02  -9.7506619586575638e-02  -1.3609786830987580e-01  -1.7790229108697275e-01  -2.1807425541653858e-01  -2.4333358572327238e-01  -2.3413437125105749e-01  -1.7934563220507663e-01  -9.5651877652613224e-02  -2.6119118115560246e-02  7.8328067189364480e-03  2.2172531488692939e-02  2.5016916272127345e-02  1.8363209105204347e-02  1.6327669906079192e-03  -8.2800558951007693e-03  -3.6597481781256540e-02  -5.6335239259247220e-03  3.1316731129495387e-02  8.0119424830800770e-02  1.5257713240808304e-01  2.1863372025795927e-01  2.5085852290992283e-01  2.4790019522650880e-01  2.2304246319954901e-01  1.8932382544766779e-01  1.5430549278702374e-01  1.2096122929784976e-01  8.9631130640044632e-02  5.9544300087560578e-02  2.9773007682019997e-02  -3.2783179705107602e-04  -3.1039174922980351e-02  -6.2406440334166646e-02  -9.4511899371142946e-02  -1.2788127949903075e-01  -1.6423403799661815e-01  -2.0623590417829907e-01  -2.5265251162265173e-01  -2.8890623393439346e-01  -2.8541198351277813e-01  -2.1942177332176732e-01  -1.0949260134998377e-01  -2.0756652613999536e-02  1.4554927153454231e-02  2.4192078332023328e-02  2.2020065273708249e-02  1.7902228851588004e-03  -1.4361310954087238e-02  -3.4760904135608922e-02  1.8688994388839572e-02  7.9655489211293576e-02  1.6188789814955398e-01  2.4323546555717290e-01  2.8576984264808042e-01  2.8450532913316384e-01  2.5656948844143895e-01  2.1978170535212510e-01  1.8382120960226767e-01  1.5131971184801254e-01  1.2115044871684662e-01  9.1520788107175649e-02  6.1464258016055123e-02  3.0796439584329087e-02  -4.0879577223499323e-04  -3.2136445323780037e-02  -6.4404320538097498e-02  -9.7004364279710348e-02  -1.2934312205927417e-01  -1.6082909670974646e-01  -1.9279718780888258e-01  -2.3100945866976058e-01  -2.8044343943918748e-01  -3.2670463998452787e-01  -3.2692791124480203e-01  -2.4412735643650613e-01  -1.0438856998528394e-01  -5.3251200334372513e-03  2.2939701257831128e-02  2.3504536306036748e-02  2.3601631469353295e-03  -1.8225984472409133e-02  -1.8372462631136319e-02  6.0564969079803264e-02  1.5113307707214232e-01  2.4836805923315267e-01  3.0966768943322082e-01  3.1713854596815561e-01  2.8966858686916735e-01  2.5122204001805726e-01  2.1518806340716359e-01  1.8393502995249433e-01  1.5468129411588144e-01  1.2491482472307905e-01  9.4209581778809864e-02  6.3030216016728480e-02  3.1675517526756611e-02  1.0511553748513180e-04  -3.1818700686841395e-02  -6.4248678280384303e-02  -9.7309647651849657e-02  -1.3092370753835555e-01  -1.6430831576426344e-01  -1.9555164428326971e-01  -2.2409311655885358e-01  -2.5770854961192985e-01  -3.0899500329736690e-01  -3.6283991410419791e-01  -3.5750449990081379e-01  -2.4331740250403538e-01  -7.2923527650297970e-02  1.6626034760198277e-02  2.4637195904884553e-02  4.5246425953960681e-03  -1.6883336905784464e-02  1.5123121774113270e-02  1.1947871967453665e-01  2.2997072330466220e-01  3.1703313768523500e-01  3.4471645481771362e-01  3.2334073549516645e-01  2.8442406136303483e-01  2.4773327162399739e-01  2.1716484381830051e-01  1.8836165479894518e-01  1.5814623806399364e-01  1.2674898161093462e-01  9.5209964406727229e-02  6.3801445487654332e-02  3.2369202604796463e-02  7.4764684812794800e-04  -3.1168032793704004e-02  -6.3408134906848046e-02  -9.5990848726156736e-02  -1.2907111261040766e-01  -1.6298909068090001e-01  -1.9748064161468140e-01  -2.2968875840814487e-01  -2.5633571719783527e-01  -2.8704081261571679e-01  -3.4257753642320954e-01  -3.9988956801411529e-01  -3.7004621176001945e-01  -2.0254481696019272e-01  -2.0602939620492935e-02  3.2324394841082758e-02  1.1625851215187281e-03  -8.4966410840450323e-03  6.4366539509581572e-02  1.8663969565071567e-01  2.9995413962749573e-01  3.6069327807594875e-01  3.5678908328005454e-01  3.1981978288421553e-01  2.8132911297705160e-01  2.5023226091752182e-01  2.2183827504906367e-01  1.9141755306800609e-01  1.5960114204027723e-01  1.2795675925790798e-01  9.6626920997980190e-02  6.5251677823605386e-02  3.3661612822148648e-02  1.8069569457950254e-03  -3.0314243708723092e-02  -6.2705533871260460e-02  -9.5322897549298943e-02  -1.2803580989740559e-01  -1.6085506328029611e-01  -1.9453934455929361e-01  -2.2979972036038018e-01  -2.6295830556353417e-01  -2.8790268127738988e-01  -3.1919386380741277e-01  -3.8428668449691228e-01  -4.3347390555578519e-01  -3.4514279066808107e-01  -1.1123782163240549e-01  3.0221124781821068e-02  3.6221421099858538e-03  6.2120569154607442e-03  1.2327705573162268e-01  2.5151007368452777e-01  3.5356461563899644e-01  3.8390004581124798e-01  3.5805730730920871e-01  3.1695679097749629e-01  2.8340825539108377e-01  2.5507790735405084e-01  2.2510031365034908e-01  1.9302566761277634e-01  1.6127571543354760e-01  1.2998540021110133e-01  9.8582720410256938e-02  6.6943616676450740e-02  3.5120747480097754e-02  3.1247401254412993e-03  -2.9080068688976231e-02  -6.1536609221646749e-02  -9.4277466090944451e-02  -1.2728360605459763e-01  -1.6030116900264518e-01  -1.9300979199083873e-01  -2.2652629453251141e-01  -2.6264478116726281e-01  -2.9577349590632324e-01  -3.1810623765359053e-01  -3.5736017630411981e-01  -4.3515024502557481e-01  -4.4416691245277284e-01  -2.4787232149277472e-01  -6.4549577375552824e-04  2.3435338791913708e-02  2.3750131562683418e-02  1.8393750444259233e-01  3.0725519922042932e-01  3.9118061478205690e-01  3.9493314248831612e-01  3.5726928720494833e-01  3.1802086948258851e-01  2.8821683666562525e-01  2.5913290259578753e-01  2.2720114493122656e-01  1.9502528651723475e-01  1.6366547658424710e-01  1.3217540898361538e-01  1.0043854614730566e-01  6.8604051821206241e-02  3.6689204148361867e-02  4.6304057178712128e-03  -2.7621181389192964e-02  -6.0091859829288351e-02  -9.2797953834704114e-02  -1.2579261099690714e-01  -1.5917661713644390e-01  -1.9264163725778233e-01  -2.2543379745696418e-01  -2.5935119536729884e-01  -2.9686195967227791e-01  -3.2743898083671480e-01  -3.4855117109510947e-01  -4.0945134956067986e-01  -4.8413810210863545e-01  -3.8144834629031515e-01  -7.0620314733893533e-02  4.2332260089675763e-02  3.9599626114431255e-02  2.3959100124441823e-01  3.5156003600766056e-01  4.1663308649960917e-01  4.0062478810548530e-01  3.5818455022670437e-01  3.2201915598880776e-01  2.9320933525753257e-01  2.6216337794555528e-01  2.2944045839445104e-01  1.9761414188998047e-01  1.6608083879939511e-01  1.3420611390152473e-01  1.0232198765765836e-01  7.0437173683173274e-02  3.8465528726163406e-02  6.3477293051276895e-03  -2.5944819388825209e-02  -5.8451431603106729e-02  -9.1200614988668965e-02  -1.2418432652220025e-01  -1.5744754776927578e-01  -1.9127319843775661e-01  -2.2523545276766826e-01  -2.5820802199684684e-01  -2.9373382467829479e-01  -3.3234583074836871e-01  -3.5585265324428689e-01  -3.8881283043145454e-01  -4.7992923151937594e-01  -4.7970001553643171e-01  -1.7362811039188064e-01  5.4497586654439024e-02  5.0143067026076127e-02  2.8587284270920948e-01  3.8482767616343161e-01  4.3393528554758931e-01  4.0480389916566711e-01  3.6117453899875435e-01  3.2708959803905180e-01  2.9751485668324612e-01  2.6488720628090090e-01  2.3207731703712800e-01  2.0026067469360107e-01  1.6831549528717393e-01  1.3625154816090221e-01  1.0433042954264600e-01  7.2383856802126889e-02  4.0363572522779910e-02  8.2352191611264145e-03  -2.4047932370399722e-02  -5.6539277604139487e-02  -8.9289399685593268e-02  -1.2235858543700340e-01  -1.5571235387098836e-01  -1.8938422569012728e-01  -2.2388023298404464e-01  -2.5824074716649276e-01  -2.9181071207448261e-01  -3.3105260834801703e-01  -3.6574780726095429e-01  -3.8452125469113274e-01  -4.5834363745123563e-01  -5.3469634643798369e-01  -2.9002101528627677e-01  5.6501172087371904e-02  5.3751449737802361e-02  3.2030904444887043e-01  4.0857105240912167e-01  4.4582129536622306e-01  4.0892849729714548e-01  3.6529395422013683e-01  3.3203182123198810e-01  3.0117680319970819e-01  2.6761991916365435e-01  2.3479602149314968e-01  2.0271703204647262e-01  1.7046019199748816e-01  1.3833200104163768e-01  1.0635696883131933e-01  7.4368306361604380e-02  4.2363197778011265e-02  1.0279516726194130e-02  -2.1946328332378182e-02  -5.4379808542234988e-02  -8.7080004769145791e-02  -1.2011010423276203e-01  -1.5358488897856026e-01  -1.8742297021990895e-01  -2.2177425782868090e-01  -2.5724672021367623e-01  -2.9161472302776931e-01  -3.2807963472944029e-01  -3.7056010703697195e-01  -3.9176893034105703e-01  -4.3876829457593125e-01  -5.5508790849964273e-01  -3.9927830219831434e-01  4.4803270076221022e-02  5.0324396540280064e-02  3.4183734477143862e-01  4.2413559578629006e-01  4.5383225502008523e-01  4.1314398494860238e-01  3.6955615405769549e-01  3.3631839140327918e-01  3.0434326036595299e-01  2.7027531779373148e-01  2.3732554715251575e-01  2.0495105175305794e-01  1.7251530344930296e-01  1.4034659630433952e-01  1.0833636090602503e-01  7.6375871919545868e-02  4.4448492117594662e-02  1.2467746479547806e-02  -1.9637198894360896e-02  -5.1943854879062536e-02  -8.4542681237970430e-02  -1.1750713630831901e-01  -1.5091532292953166e-01  -1.8494980200531663e-01  -2.1940589529256363e-01  -2.5496661886788419e-01  -2.9121736837103329e-01  -3.2611189989394207e-01  -3.7007199480494840e-01  -4.0216929333571816e-01  -4.2812183524114822e-01  -5.5453317991668472e-01  -4.9001865522782739e-01  2.1482529401298349e-02  4.1598472596882097e-02  3.4941166841684435e-01  4.3275695073998943e-01  4.5843766542938919e-01  4.1724925043975375e-01  3.7329771875654788e-01  3.3977437108419356e-01  3.0702526871824937e-01  2.7268059364538472e-01  2.3952750854875099e-01  2.0693565218001370e-01  1.7440331327316502e-01  1.4221719506760402e-01  1.1023281991205794e-01  7.8368858711034745e-02  4.6581721057425966e-02  1.4777208349173327e-02  -1.7126204263811482e-02  -4.9227252715656263e-02  -8.1620384097313453e-02  -1.1443836278468175e-01  -1.4775300293044713e-01  -1.8171952393859697e-01  -2.1648903920227058e-01  -2.5188285465849225e-01  -2.8928126270637639e-01  -3.2497795633704968e-01  -3.6667321323067931e-01  -4.1013296196147925e-01  -4.2528641067534306e-01  -5.4392919531012807e-01  -5.5961001728620829e-01  -8.6587170713140812e-03  2.9460433024994924e-02  3.4232955902165130e-01  4.3522062985790427e-01  4.5956076231314313e-01  4.2111162377623157e-01  3.7619361560557185e-01  3.4234884725566450e-01  3.0916371186433861e-01  2.7470627474553760e-01  2.4132171781700709e-01  2.0861028936152443e-01  1.7604121282686735e-01  1.4388039530448865e-01  1.1199197293460186e-01  8.0293056210998373e-02  4.8724355427975617e-02  1.7186539482904318e-02  -1.4419309687835563e-02  -4.6208293531215992e-02  -7.8306754984011337e-02  -1.1082795581137318e-01  -1.4396858211127392e-01  -1.7774382569903330e-01  -2.1258175141146182e-01  -2.4811681693551690e-01  -2.8557195836653282e-01  -3.2333409131879282e-01  -3.6205763553035214e-01  -4.1361787630754798e-01  -4.2659096372073996e-01  -5.2933712807668287e-01  -6.1026347253056290e-01  -4.0936728603365793e-02  1.4919229710244527e-02  3.2086057573172438e-01  4.3125200488465903e-01  4.5725624296310757e-01  4.2435100618567739e-01  3.7846361388406319e-01  3.4392257226339801e-01  3.1073736046686101e-01  2.7626253869911299e-01  2.4266307235965970e-01  2.0989143869227631e-01  1.7736016775784383e-01  1.4526645177439254e-01  1.1354877323275794e-01  8.2092948320455827e-02  5.0832987946771720e-02  1.9665876765161811e-02  -1.1533801388679665e-02  -4.2887081342523052e-02  -7.4548167331972573e-02  -1.0665935032795132e-01  -1.3942049507263099e-01  -1.7295860043851127e-01  -2.0750659277476988e-01  -2.4332993300135483e-01  -2.8026897902106390e-01  -3.2003033075996445e-01  -3.5663523395599156e-01  -4.1254941069226697e-01  -4.2855802596825859e-01  -5.1330345656510590e-01  -6.4554317910912551e-01  -7.2309218076038170e-02  -2.6953488955034834e-05  2.8533106071811759e-01  4.1972047301899490e-01  4.5158746124634608e-01  4.2643199246563207e-01  3.8058532462575112e-01  3.4452419096418913e-01  3.1167339592323845e-01  2.7731440858422185e-01  2.4351994300869320e-01  2.1069369595439880e-01  1.7827676273497306e-01  1.4630247783497757e-01  1.1481804373036607e-01  8.3697366719805613e-02  5.2849333938891893e-02  2.2163928023341176e-02  -8.4885594530166066e-03  -3.9266505270572530e-02  -7.0326850747067571e-02  -1.0187273818200829e-01  -1.3405491873624198e-01  -1.6718936314022570e-01  -2.0122130024389742e-01  -2.3711316967924984e-01  -2.7346658920183109e-01  -3.1439387888795978e-01  -3.5004337019323861e-01  -4.0750447151753533e-01  -4.2876192545902075e-01  -4.9636795088662433e-01  -6.6879577414738323e-01  -1.0121803401217422e-01  -1.2755387358123460e-02  2.3691872024771995e-01  3.9859003076963795e-01  4.4221648747723380e-01  4.2665375329770805e-01  3.8300160711695508e-01  3.4451149563945094e-01  3.1179220680309616e-01  2.7785725873684453e-01  2.4387265153434121e-01  2.1094582346144192e-01  1.7867798707640209e-01  1.4690967977588271e-01  1.1571240119436321e-01  8.5018320913739079e-02  5.4703543976624670e-02  2.4635658382434679e-02  -5.3204291050595338e-03  -3.5363712448301422e-02  -6.5639752278660188e-02  -9.6413032929286477e-02  -1.2783328855598364e-01  -1.6028019046298392e-01  -1.9366242513603463e-01  -2.2917037750858282e-01  -2.6504830735013168e-01  -3.0611231878048878e-01  -3.4170839893005012e-01  -3.9895964024362957e-01  -4.2573337864794719e-01  -4.7822657089738857e-01  -6.8265528518846030e-01  -1.2702564853123507e-01  -2.1005024336008902e-02  1.7905358768220944e-01  3.6475057073955319e-01  4.2808540593675753e-01  4.2416416875601820e-01  3.8565834670525984e-01  3.4469029203094370e-01  3.1097527551426740e-01  2.7774987199669660e-01  2.4372520774046683e-01  2.1058845899499715e-01  1.7842813767927995e-01  1.4695071920169078e-01  1.1613131361871727e-01  8.5949386275306128e-02  5.6291624434162170e-02  2.6996692394770910e-02  -2.0967317930030327e-03  -3.1201991491937326e-02  -6.0478100691231128e-02  -9.0281254308262934e-02  -1.2067873103048171e-01  -1.5215400264995221e-01  -1.8468269772551760e-01  -2.1938545769821194e-01  -2.5468596335265320e-01  -2.9512577779181220e-01  -3.3099496717284044e-01  -3.8717624133957140e-01  -4.1869514651880274e-01  -4.5814201159907220e-01  -6.8919360140371411e-01  -1.4942774193815628e-01  -2.3515251631109561e-02  1.1802258282356272e-01  3.1530304020917377e-01  4.0629311381554234e-01  4.1781935476657828e-01  3.8770484689781476e-01  3.4591458823940563e-01  3.0958770343249770e-01  2.7663163679121988e-01  2.4297963036152895e-01  2.0960252692394349e-01  1.7740701866113620e-01  1.4624074959986322e-01  1.1592170055288935e-01  8.6380699836215880e-02  5.7519976255053409e-02  2.9165621418773172e-02  1.1336991311711481e-03  -2.6819767685203444e-02  -5.4909414918541379e-02  -8.3454389063977161e-02  -1.1251168401997219e-01  -1.4280061282418693e-01  -1.7414046314641218e-01  -2.0764153964623425e-01  -2.4207578118111811e-01  -2.8137840841751771e-01  -3.1730803778861288e-01  -3.7233372985101382e-01  -4.0697550824231171e-01  -4.3541420118088925e-01  -6.9005114604659168e-01  -1.6811235978106417e-01  -2.0573260363074525e-02  6.2501704933648816e-02  2.4961420845579388e-01  3.7210809041809489e-01  4.0563188124959848e-01  3.8744720340275457e-01  3.4828465889513660e-01  3.0873828819020877e-01  2.7432338766771647e-01  2.4115468582011099e-01  2.0787829721893414e-01  1.7555181042239554e-01  1.4459684348235957e-01  1.1484860684983697e-01  8.6110268240339405e-02  5.8228553464628539e-02  3.1010291253785696e-02  4.2516645629619380e-03  -2.2328968820205991e-02  -4.8914102498000690e-02  -7.5871351178839919e-02  -1.0340974479902904e-01  -1.3221348663891266e-01  -1.6185456923045516e-01  -1.9386042442244855e-01  -2.2700543173562607e-01  -2.6459660767695548e-01  -3.0038001744139564e-01  -3.5431443063684903e-01  -3.8981013710752299e-01  -4.0944471820061595e-01  -6.8677270948474201e-01  -1.8243422895346481e-01  -1.3586228283670825e-02  2.0432436880993020e-02  1.7295982941814461e-01  3.1999073423116947e-01  3.8347367433275353e-01  3.8255387601313795e-01  3.5025273023101572e-01  3.0938576792063310e-01  2.7165191866659283e-01  2.3767396439078112e-01  2.0480371225907251e-01  1.7268172919350819e-01  1.4194324238417991e-01  1.1276163792022488e-01  8.4946676132766782e-02  5.8252122847717511e-02  3.2413282915199695e-02  7.1915550412849881e-03  -1.7710392430237559e-02  -4.2543819997524546e-02  -6.7760569351738784e-02  -9.3444755201060090e-02  -1