<?xml version="1.0"?>
<VTKFile type="UnstructuredGrid"  version="0.1"  >
<UnstructuredGrid>
<Piece  NumberOfPoints="25" NumberOfCells="16">
<Points>
<DataArray  type="Float64"  NumberOfComponents="3"  format="ascii">0 0 0  0.25 0 0  0.5 0 0  0.75 0 0  1 0 0  0 0.25 0  0.25 0.25 0  0.5 0.25 0  0.75 0.25 0  1 0.25 0  0 0.5 0  0.25 0.5 0  0.5 0.5 0  0.75 0.5 0  1 0.5 0  0 0.75 0  0.25 0.75 0  0.5 0.75 0  0.75 0.75 0  1 0.75 0  0 1 0  0.25 1 0  0.5 1 0  0.75 1 0  1 1 0  </DataArray>
</Points>
<Cells>
<DataArray  type="UInt32"  Name="connectivity"  format="ascii">0 1 6 5  1 2 7 6  2 3 8 7  3 4 9 8  5 6 11 10  6 7 12 11  7 8 13 12  8 9 14 13  10 11 16 15  11 12 17 16  12 13 18 17  13 14 19 18  15 16 21 20  16 17 22 21  17 18 23 22  18 19 24 23  </DataArray>
<DataArray  type="UInt32"  Name="offsets"  format="ascii">4 8 12 16 20 24 28 32 36 40 44 48 52 56 60 64 </DataArray>
<DataArray  type="UInt8"  Name="types"  format="ascii">9 9 9 9 9 9 9 9 9 9 9 9 9 9 9 9 </DataArray>
</Cells>
<PointData  Scalars="u_sol"> 
<DataArray  type="Float64"  Name="u_sol"  format="ascii">-1.6263032587282570e-18  8.1315162936412852e-19  -2.0328790734103208e-19  -3.8065778892865307e-18  4.3368086899420177e-19  -1.9403214570646882e-03  8.2695456624347248e-03  2.2952099319352035e-02  1.2132320399490160e-02  -3.1601450582134484e-03  -4.0615047017657051e-07  7.4280660540830719e-07  -5.8680354889069711e-06  -5.9588381838640165e-06  1.7101583409096476e-06  1.9407276075168892e-03  -8.2702884688913812e-03  -2.2946231283710511e-02  -1.2126361561352902e-02  3.1584348998405509e-03  -9.7578195523695341e-19  2.6020852139652099e-18  6.4295937841844896e-19  -4.3368086899420168e-19  2.1684043449710074e-19  </DataArray> 
</PointData> 
</Piece>
</UnstructuredGrid>
</VTKFile>