<?xml version="1.0"?>
<VTKFile type="UnstructuredGrid"  version="0.1"  >
<UnstructuredGrid>
<Piece  NumberOfPoints="1089" NumberOfCells="1024">
<Points>
<DataArray  type="Float64"  NumberOfComponents="3"  format="ascii">0 0 0  0.03125 0 0  0.0625 0 0  0.09375 0 0  0.125 0 0  0.15625 0 0  0.1875 0 0  0.21875 0 0  0.25 0 0  0.28125 0 0  0.3125 0 0  0.34375 0 0  0.375 0 0  0.40625 0 0  0.4375 0 0  0.46875 0 0  0.5 0 0  0.53125 0 0  0.5625 0 0  0.59375 0 0  0.625 0 0  0.65625 0 0  0.6875 0 0  0.71875 0 0  0.75 0 0  0.78125 0 0  0.8125 0 0  0.84375 0 0  0.875 0 0  0.90625 0 0  0.9375 0 0  0.96875 0 0  1 0 0  0 0.03125 0  0.03125 0.03125 0  0.0625 0.03125 0  0.09375 0.03125 0  0.125 0.03125 0  0.15625 0.03125 0  0.1875 0.03125 0  0.21875 0.03125 0  0.25 0.03125 0  0.28125 0.03125 0  0.3125 0.03125 0  0.34375 0.03125 0  0.375 0.03125 0  0.40625 0.03125 0  0.4375 0.03125 0  0.46875 0.03125 0  0.5 0.03125 0  0.53125 0.03125 0  0.5625 0.03125 0  0.59375 0.03125 0  0.625 0.03125 0  0.65625 0.03125 0  0.6875 0.03125 0  0.71875 0.03125 0  0.75 0.03125 0  0.78125 0.03125 0  0.8125 0.03125 0  0.84375 0.03125 0  0.875 0.03125 0  0.90625 0.03125 0  0.9375 0.03125 0  0.96875 0.03125 0  1 0.03125 0  0 0.0625 0  0.03125 0.0625 0  0.0625 0.0625 0  0.09375 0.0625 0  0.125 0.0625 0  0.15625 0.0625 0  0.1875 0.0625 0  0.21875 0.0625 0  0.25 0.0625 0  0.28125 0.0625 0  0.3125 0.0625 0  0.34375 0.0625 0  0.375 0.0625 0  0.40625 0.0625 0  0.4375 0.0625 0  0.46875 0.0625 0  0.5 0.0625 0  0.53125 0.0625 0  0.5625 0.0625 0  0.59375 0.0625 0  0.625 0.0625 0  0.65625 0.0625 0  0.6875 0.0625 0  0.71875 0.0625 0  0.75 0.0625 0  0.78125 0.0625 0  0.8125 0.0625 0  0.84375 0.0625 0  0.875 0.0625 0  0.90625 0.0625 0  0.9375 0.0625 0  0.96875 0.0625 0  1 0.0625 0  0 0.09375 0  0.03125 0.09375 0  0.0625 0.09375 0  0.09375 0.09375 0  0.125 0.09375 0  0.15625 0.09375 0  0.1875 0.09375 0  0.21875 0.09375 0  0.25 0.09375 0  0.28125 0.09375 0  0.3125 0.09375 0  0.34375 0.09375 0  0.375 0.09375 0  0.40625 0.09375 0  0.4375 0.09375 0  0.46875 0.09375 0  0.5 0.09375 0  0.53125 0.09375 0  0.5625 0.09375 0  0.59375 0.09375 0  0.625 0.09375 0  0.65625 0.09375 0  0.6875 0.09375 0  0.71875 0.09375 0  0.75 0.09375 0  0.78125 0.09375 0  0.8125 0.09375 0  0.84375 0.09375 0  0.875 0.09375 0  0.90625 0.09375 0  0.9375 0.09375 0  0.96875 0.09375 0  1 0.09375 0  0 0.125 0  0.03125 0.125 0  0.0625 0.125 0  0.09375 0.125 0  0.125 0.125 0  0.15625 0.125 0  0.1875 0.125 0  0.21875 0.125 0  0.25 0.125 0  0.28125 0.125 0  0.3125 0.125 0  0.34375 0.125 0  0.375 0.125 0  0.40625 0.125 0  0.4375 0.125 0  0.46875 0.125 0  0.5 0.125 0  0.53125 0.125 0  0.5625 0.125 0  0.59375 0.125 0  0.625 0.125 0  0.65625 0.125 0  0.6875 0.125 0  0.71875 0.125 0  0.75 0.125 0  0.78125 0.125 0  0.8125 0.125 0  0.84375 0.125 0  0.875 0.125 0  0.90625 0.125 0  0.9375 0.125 0  0.96875 0.125 0  1 0.125 0  0 0.15625 0  0.03125 0.15625 0  0.0625 0.15625 0  0.09375 0.15625 0  0.125 0.15625 0  0.15625 0.15625 0  0.1875 0.15625 0  0.21875 0.15625 0  0.25 0.15625 0  0.28125 0.15625 0  0.3125 0.15625 0  0.34375 0.15625 0  0.375 0.15625 0  0.40625 0.15625 0  0.4375 0.15625 0  0.46875 0.15625 0  0.5 0.15625 0  0.53125 0.15625 0  0.5625 0.15625 0  0.59375 0.15625 0  0.625 0.15625 0  0.65625 0.15625 0  0.6875 0.15625 0  0.71875 0.15625 0  0.75 0.15625 0  0.78125 0.15625 0  0.8125 0.15625 0  0.84375 0.15625 0  0.875 0.15625 0  0.90625 0.15625 0  0.9375 0.15625 0  0.96875 0.15625 0  1 0.15625 0  0 0.1875 0  0.03125 0.1875 0  0.0625 0.1875 0  0.09375 0.1875 0  0.125 0.1875 0  0.15625 0.1875 0  0.1875 0.1875 0  0.21875 0.1875 0  0.25 0.1875 0  0.28125 0.1875 0  0.3125 0.1875 0  0.34375 0.1875 0  0.375 0.1875 0  0.40625 0.1875 0  0.4375 0.1875 0  0.46875 0.1875 0  0.5 0.1875 0  0.53125 0.1875 0  0.5625 0.1875 0  0.59375 0.1875 0  0.625 0.1875 0  0.65625 0.1875 0  0.6875 0.1875 0  0.71875 0.1875 0  0.75 0.1875 0  0.78125 0.1875 0  0.8125 0.1875 0  0.84375 0.1875 0  0.875 0.1875 0  0.90625 0.1875 0  0.9375 0.1875 0  0.96875 0.1875 0  1 0.1875 0  0 0.21875 0  0.03125 0.21875 0  0.0625 0.21875 0  0.09375 0.21875 0  0.125 0.21875 0  0.15625 0.21875 0  0.1875 0.21875 0  0.21875 0.21875 0  0.25 0.21875 0  0.28125 0.21875 0  0.3125 0.21875 0  0.34375 0.21875 0  0.375 0.21875 0  0.40625 0.21875 0  0.4375 0.21875 0  0.46875 0.21875 0  0.5 0.21875 0  0.53125 0.21875 0  0.5625 0.21875 0  0.59375 0.21875 0  0.625 0.21875 0  0.65625 0.21875 0  0.6875 0.21875 0  0.71875 0.21875 0  0.75 0.21875 0  0.78125 0.21875 0  0.8125 0.21875 0  0.84375 0.21875 0  0.875 0.21875 0  0.90625 0.21875 0  0.9375 0.21875 0  0.96875 0.21875 0  1 0.21875 0  0 0.25 0  0.03125 0.25 0  0.0625 0.25 0  0.09375 0.25 0  0.125 0.25 0  0.15625 0.25 0  0.1875 0.25 0  0.21875 0.25 0  0.25 0.25 0  0.28125 0.25 0  0.3125 0.25 0  0.34375 0.25 0  0.375 0.25 0  0.40625 0.25 0  0.4375 0.25 0  0.46875 0.25 0  0.5 0.25 0  0.53125 0.25 0  0.5625 0.25 0  0.59375 0.25 0  0.625 0.25 0  0.65625 0.25 0  0.6875 0.25 0  0.71875 0.25 0  0.75 0.25 0  0.78125 0.25 0  0.8125 0.25 0  0.84375 0.25 0  0.875 0.25 0  0.90625 0.25 0  0.9375 0.25 0  0.96875 0.25 0  1 0.25 0  0 0.28125 0  0.03125 0.28125 0  0.0625 0.28125 0  0.09375 0.28125 0  0.125 0.28125 0  0.15625 0.28125 0  0.1875 0.28125 0  0.21875 0.28125 0  0.25 0.28125 0  0.28125 0.28125 0  0.3125 0.28125 0  0.34375 0.28125 0  0.375 0.28125 0  0.40625 0.28125 0  0.4375 0.28125 0  0.46875 0.28125 0  0.5 0.28125 0  0.53125 0.28125 0  0.5625 0.28125 0  0.59375 0.28125 0  0.625 0.28125 0  0.65625 0.28125 0  0.6875 0.28125 0  0.71875 0.28125 0  0.75 0.28125 0  0.78125 0.28125 0  0.8125 0.28125 0  0.84375 0.28125 0  0.875 0.28125 0  0.90625 0.28125 0  0.9375 0.28125 0  0.96875 0.28125 0  1 0.28125 0  0 0.3125 0  0.03125 0.3125 0  0.0625 0.3125 0  0.09375 0.3125 0  0.125 0.3125 0  0.15625 0.3125 0  0.1875 0.3125 0  0.21875 0.3125 0  0.25 0.3125 0  0.28125 0.3125 0  0.3125 0.3125 0  0.34375 0.3125 0  0.375 0.3125 0  0.40625 0.3125 0  0.4375 0.3125 0  0.46875 0.3125 0  0.5 0.3125 0  0.53125 0.3125 0  0.5625 0.3125 0  0.59375 0.3125 0  0.625 0.3125 0  0.65625 0.3125 0  0.6875 0.3125 0  0.71875 0.3125 0  0.75 0.3125 0  0.78125 0.3125 0  0.8125 0.3125 0  0.84375 0.3125 0  0.875 0.3125 0  0.90625 0.3125 0  0.9375 0.3125 0  0.96875 0.3125 0  1 0.3125 0  0 0.34375 0  0.03125 0.34375 0  0.0625 0.34375 0  0.09375 0.34375 0  0.125 0.34375 0  0.15625 0.34375 0  0.1875 0.34375 0  0.21875 0.34375 0  0.25 0.34375 0  0.28125 0.34375 0  0.3125 0.34375 0  0.34375 0.34375 0  0.375 0.34375 0  0.40625 0.34375 0  0.4375 0.34375 0  0.46875 0.34375 0  0.5 0.34375 0  0.53125 0.34375 0  0.5625 0.34375 0  0.59375 0.34375 0  0.625 0.34375 0  0.65625 0.34375 0  0.6875 0.34375 0  0.71875 0.34375 0  0.75 0.34375 0  0.78125 0.34375 0  0.8125 0.34375 0  0.84375 0.34375 0  0.875 0.34375 0  0.90625 0.34375 0  0.9375 0.34375 0  0.96875 0.34375 0  1 0.34375 0  0 0.375 0  0.03125 0.375 0  0.0625 0.375 0  0.09375 0.375 0  0.125 0.375 0  0.15625 0.375 0  0.1875 0.375 0  0.21875 0.375 0  0.25 0.375 0  0.28125 0.375 0  0.3125 0.375 0  0.34375 0.375 0  0.375 0.375 0  0.40625 0.375 0  0.4375 0.375 0  0.46875 0.375 0  0.5 0.375 0  0.53125 0.375 0  0.5625 0.375 0  0.59375 0.375 0  0.625 0.375 0  0.65625 0.375 0  0.6875 0.375 0  0.71875 0.375 0  0.75 0.375 0  0.78125 0.375 0  0.8125 0.375 0  0.84375 0.375 0  0.875 0.375 0  0.90625 0.375 0  0.9375 0.375 0  0.96875 0.375 0  1 0.375 0  0 0.40625 0  0.03125 0.40625 0  0.0625 0.40625 0  0.09375 0.40625 0  0.125 0.40625 0  0.15625 0.40625 0  0.1875 0.40625 0  0.21875 0.40625 0  0.25 0.40625 0  0.28125 0.40625 0  0.3125 0.40625 0  0.34375 0.40625 0  0.375 0.40625 0  0.40625 0.40625 0  0.4375 0.40625 0  0.46875 0.40625 0  0.5 0.40625 0  0.53125 0.40625 0  0.5625 0.40625 0  0.59375 0.40625 0  0.625 0.40625 0  0.65625 0.40625 0  0.6875 0.40625 0  0.71875 0.40625 0  0.75 0.40625 0  0.78125 0.40625 0  0.8125 0.40625 0  0.84375 0.40625 0  0.875 0.40625 0  0.90625 0.40625 0  0.9375 0.40625 0  0.96875 0.40625 0  1 0.40625 0  0 0.4375 0  0.03125 0.4375 0  0.0625 0.4375 0  0.09375 0.4375 0  0.125 0.4375 0  0.15625 0.4375 0  0.1875 0.4375 0  0.21875 0.4375 0  0.25 0.4375 0  0.28125 0.4375 0  0.3125 0.4375 0  0.34375 0.4375 0  0.375 0.4375 0  0.40625 0.4375 0  0.4375 0.4375 0  0.46875 0.4375 0  0.5 0.4375 0  0.53125 0.4375 0  0.5625 0.4375 0  0.59375 0.4375 0  0.625 0.4375 0  0.65625 0.4375 0  0.6875 0.4375 0  0.71875 0.4375 0  0.75 0.4375 0  0.78125 0.4375 0  0.8125 0.4375 0  0.84375 0.4375 0  0.875 0.4375 0  0.90625 0.4375 0  0.9375 0.4375 0  0.96875 0.4375 0  1 0.4375 0  0 0.46875 0  0.03125 0.46875 0  0.0625 0.46875 0  0.09375 0.46875 0  0.125 0.46875 0  0.15625 0.46875 0  0.1875 0.46875 0  0.21875 0.46875 0  0.25 0.46875 0  0.28125 0.46875 0  0.3125 0.46875 0  0.34375 0.46875 0  0.375 0.46875 0  0.40625 0.46875 0  0.4375 0.46875 0  0.46875 0.46875 0  0.5 0.46875 0  0.53125 0.46875 0  0.5625 0.46875 0  0.59375 0.46875 0  0.625 0.46875 0  0.65625 0.46875 0  0.6875 0.46875 0  0.71875 0.46875 0  0.75 0.46875 0  0.78125 0.46875 0  0.8125 0.46875 0  0.84375 0.46875 0  0.875 0.46875 0  0.90625 0.46875 0  0.9375 0.46875 0  0.96875 0.46875 0  1 0.46875 0  0 0.5 0  0.03125 0.5 0  0.0625 0.5 0  0.09375 0.5 0  0.125 0.5 0  0.15625 0.5 0  0.1875 0.5 0  0.21875 0.5 0  0.25 0.5 0  0.28125 0.5 0  0.3125 0.5 0  0.34375 0.5 0  0.375 0.5 0  0.40625 0.5 0  0.4375 0.5 0  0.46875 0.5 0  0.5 0.5 0  0.53125 0.5 0  0.5625 0.5 0  0.59375 0.5 0  0.625 0.5 0  0.65625 0.5 0  0.6875 0.5 0  0.71875 0.5 0  0.75 0.5 0  0.78125 0.5 0  0.8125 0.5 0  0.84375 0.5 0  0.875 0.5 0  0.90625 0.5 0  0.9375 0.5 0  0.96875 0.5 0  1 0.5 0  0 0.53125 0  0.03125 0.53125 0  0.0625 0.53125 0  0.09375 0.53125 0  0.125 0.53125 0  0.15625 0.53125 0  0.1875 0.53125 0  0.21875 0.53125 0  0.25 0.53125 0  0.28125 0.53125 0  0.3125 0.53125 0  0.34375 0.53125 0  0.375 0.53125 0  0.40625 0.53125 0  0.4375 0.53125 0  0.46875 0.53125 0  0.5 0.53125 0  0.53125 0.53125 0  0.5625 0.53125 0  0.59375 0.53125 0  0.625 0.53125 0  0.65625 0.53125 0  0.6875 0.53125 0  0.71875 0.53125 0  0.75 0.53125 0  0.78125 0.531
[...]
<PointData  Scalars="u_sol"> 
<DataArray  type="Float64"  Name="u_sol"  format="ascii">3.2097446878457274e-05  -2.4947764732665746e-04  6.9188552125473842e-05  6.1751975211830771e-04  1.3520300724248267e-03  9.0174691991577250e-04  2.9229525728198640e-03  2.8711395382999007e-03  -1.2967393002152943e-03  8.7831858434722077e-03  2.8029333939127744e-02  4.1439953079997593e-02  4.3107241362913211e-02  2.8119994239717734e-02  9.2974691110881834e-04  -2.9028280830277274e-02  -5.2659327994393039e-02  -6.6328119298634428e-02  -6.6805572737013583e-02  -5.0315999420247351e-02  -1.8444901577239717e-02  2.0728378897921212e-02  5.2047469824536119e-02  6.2797897476536510e-02  5.6181918196231272e-02  4.3108530953530448e-02  2.2688223886658677e-02  4.4380685669258855e-03  -9.5664964878500376e-04  -1.4974927203031836e-03  -1.0467449903335828e-03  -3.2320325647939208e-04  6.1053309097640224e-05  -1.5074655934204341e-04  6.2646217988418084e-04  4.1823678323524051e-03  9.2642370598591678e-03  1.2413094858184008e-02  1.5462465253487214e-02  1.4139746380558420e-02  1.7060136289086245e-02  2.4695793357765422e-02  4.8910226958925641e-03  -5.3436381441986140e-02  -1.3912128058657000e-01  -2.3257603749191597e-01  -3.1364136363914336e-01  -3.7248391598428865e-01  -4.0789353911359910e-01  -4.2260361175501654e-01  -4.1761368937871718e-01  -3.9278755614889582e-01  -3.4799474386531032e-01  -2.8226026351139322e-01  -1.9714683363022451e-01  -1.0115382291806822e-01  -1.3884780524112539e-02  4.1621882006362250e-02  6.1969652079921209e-02  6.6477976536364281e-02  5.5989966802205166e-02  3.1314232401108900e-02  1.2179606559203261e-02  3.1654968422790268e-03  4.2100938549210592e-05  -6.3398631169598118e-05  -5.4986869523550265e-04  2.3246172515661505e-03  9.6375725453115655e-03  1.5254870532361523e-02  1.6502558361354391e-02  1.3076640462512225e-02  1.4390645608871704e-02  -4.9207883185475934e-03  -7.9787664213824924e-02  -1.9322023425394957e-01  -3.0766137224396678e-01  -3.9409736766367454e-01  -4.4657317383997974e-01  -4.7324522570083299e-01  -4.8544588455634352e-01  -4.9082942300835258e-01  -4.9214559322745588e-01  -4.8962444981415459e-01  -4.8360249854234200e-01  -4.7290615305996131e-01  -4.5298061994731037e-01  -4.1500890196188395e-01  -3.4756264885176219e-01  -2.4637480711922016e-01  -1.3071647782054274e-01  -4.2532792860442349e-02  -3.7750413071148082e-03  1.6503098114539122e-02  2.8728118312429565e-02  2.1034246834283808e-02  9.1040824172341304e-03  2.3679259789620866e-03  -3.8585159528557007e-04  -1.1909640083967840e-03  5.7239142033059208e-03  1.6957330256483848e-02  1.7571944817210070e-02  1.0500664073784775e-02  3.4998510765582090e-03  -4.2552326489342943e-02  -1.5165053115996324e-01  -2.8062376269722095e-01  -3.7964239255704008e-01  -4.3126972757158238e-01  -4.4800244525349697e-01  -4.4896750454417023e-01  -4.4653070103217768e-01  -4.4384584636976537e-01  -4.4055863163121262e-01  -4.3669149162096205e-01  -4.3345191953083956e-01  -4.3144211598040605e-01  -4.3210125658627957e-01  -4.3742157636275247e-01  -4.4559572628508609e-01  -4.4497880823582753e-01  -4.1123938136797794e-01  -3.2126838717253703e-01  -1.8522603753614103e-01  -6.3470386772585694e-02  -1.3178917743899064e-02  4.1856025820199392e-04  1.2016660923763692e-02  1.0172380505634411e-02  3.1693349570369174e-03  -6.2423775687787421e-04  -2.4595123093798413e-03  1.0909751797633222e-02  1.8890593815231338e-02  8.4301074523261670e-03  -5.6594504511596937e-03  -6.4048647620278537e-02  -1.8612948934983814e-01  -3.1166084243279790e-01  -3.8789065108697568e-01  -4.1102479900858963e-01  -4.0668718998241815e-01  -3.9746443348582056e-01  -3.9163284667764059e-01  -3.8875900913845773e-01  -3.8761758121660406e-01  -3.8741915761865553e-01  -3.8693672149585279e-01  -3.8449422582634696e-01  -3.8004798987797694e-01  -3.7485152471686345e-01  -3.7166745075207508e-01  -3.7624484465037789e-01  -3.9447646965629879e-01  -4.2078176757378144e-01  -4.2398505525342517e-01  -3.5920683452994956e-01  -2.1791372313950821e-01  -6.9245716128672058e-02  -6.3606578162012182e-03  1.1523725871538117e-03  5.7822443298706340e-03  2.5416520455256854e-03  -3.1677042600236453e-04  -1.9591041904802142e-03  1.3381377875965814e-02  8.8810175125614288e-03  -9.3756241504292775e-03  -6.5467858316680769e-02  -1.8644966495239743e-01  -3.0608673804955649e-01  -3.6720457251877248e-01  -3.7426709637543071e-01  -3.6232604022345910e-01  -3.5441709706428254e-01  -3.5400902112402499e-01  -3.5787777943440524e-01  -3.6341965605358145e-01  -3.6847835777132110e-01  -3.7140384225977136e-01  -3.7188584918602430e-01  -3.7089717391672056e-01  -3.6885078347643524e-01  -3.6516752250417217e-01  -3.5863693576477168e-01  -3.4837490498975587e-01  -3.3868000635604767e-01  -3.4350616827499680e-01  -3.7313056610008866e-01  -3.9985986694714171e-01  -3.5818715028010517e-01  -2.1851014640970837e-01  -5.7624516266224821e-02  1.9516112386804168e-03  2.5696672754187628e-03  3.1725630050326412e-03  -1.2687859352045435e-03  2.3828588110911973e-05  8.2267477300507156e-03  -6.8828789209758462e-03  -5.3296688354264377e-02  -1.6189738208015522e-01  -2.7850842778558765e-01  -3.3570812421300894e-01  -3.3706276071185004e-01  -3.2401351771546461e-01  -3.2014881405352008e-01  -3.2445506419444342e-01  -3.3091550361122968e-01  -3.3572689008329532e-01  -3.3731635321130915e-01  -3.3634812470352787e-01  -3.3467532056836363e-01  -3.3352223110485468e-01  -3.3282397027033334e-01  -3.3255615750962075e-01  -3.3337403602863475e-01  -3.3567994266850260e-01  -3.3778503556596456e-01  -3.3388041970588861e-01  -3.1967273819545899e-01  -3.0925695587400953e-01  -3.3037604714095131e-01  -3.6567082182395938e-01  -3.3224718979171108e-01  -1.8778255267173852e-01  -2.9772066643762283e-02  5.4372147701029928e-03  -1.3630508324868360e-03  2.0833297421663159e-03  1.6164708341464308e-03  -1.0883843729707625e-03  -3.4683481487675395e-02  -1.2275336041080653e-01  -2.3539907047330261e-01  -2.9924340954552781e-01  -3.0285402454109200e-01  -2.8996999096648607e-01  -2.8826777351251009e-01  -2.9434529346421445e-01  -3.0003515087357152e-01  -3.0187966424420676e-01  -3.0068490780657525e-01  -2.9943773746639851e-01  -2.9972436481853071e-01  -3.0076401417319915e-01  -3.0123533186957124e-01  -3.0080487647493453e-01  -2.9960434321586321e-01  -2.9775404950680051e-01  -2.9618249836217225e-01  -2.9742896831971305e-01  -3.0355959426584850e-01  -3.0843085190765857e-01  -2.9825933791073489e-01  -2.8097168848833598e-01  -2.9650064772557067e-01  -3.3209753961304173e-01  -2.8802259559095833e-01  -1.2946729808293100e-01  4.0266283832690223e-04  4.0560239686940397e-03  -2.6098020843968697e-03  3.5475426130745914e-03  -1.4152649287984010e-02  -7.8141262151897414e-02  -1.7987874059016831e-01  -2.5577987004974700e-01  -2.7043559219206531e-01  -2.5817310460203513e-01  -2.5585237432603342e-01  -2.6223599191030622e-01  -2.6698978453302508e-01  -2.6737607053544848e-01  -2.6614799343791889e-01  -2.6698827259889196e-01  -2.6961380090054327e-01  -2.7177521419035833e-01  -2.7274491999110606e-01  -2.7312843718179858e-01  -2.7333988392902975e-01  -2.7345567124205078e-01  -2.7331114928500189e-01  -2.7201680170512471e-01  -2.6855010644129579e-01  -2.6526195392525370e-01  -2.6899906818307961e-01  -2.7728275272772684e-01  -2.6995720343222263e-01  -2.5153213542206126e-01  -2.6971860541110054e-01  -2.9782690276635193e-01  -2.2241006807817879e-01  -5.3352478138758576e-02  9.3413645532784799e-03  -4.3462138179939467e-03  5.6528363254116556e-03  -3.3204984466044418e-02  -1.1612414303374283e-01  -2.0039142987382677e-01  -2.3488557540710228e-01  -2.2802960144441498e-01  -2.2256571171079190e-01  -2.2842264210312221e-01  -2.3334944735740340e-01  -2.3369761721237906e-01  -2.3313322774128384e-01  -2.3520684941016282e-01  -2.3818135803978691e-01  -2.3942397860608805e-01  -2.3952940191474645e-01  -2.3966030657579596e-01  -2.3992822847247877e-01  -2.4019116369097837e-01  -2.4043855988729340e-01  -2.4097540378790780e-01  -2.4238100050446043e-01  -2.4395908818799800e-01  -2.4219568884266854e-01  -2.3680320559835233e-01  -2.3802992707279585e-01  -2.4619097706901283e-01  -2.3660164950495585e-01  -2.2134996385748648e-01  -2.4834437887327165e-01  -2.5186439366183183e-01  -1.2938504299971640e-01  5.4671074000027849e-03  7.7236344155915413e-04  6.7519212768151829e-03  -4.9121634604389577e-02  -1.3152420163983278e-01  -1.8779624605185524e-01  -1.9707160043718419e-01  -1.8970522194493294e-01  -1.9291703959611434e-01  -1.9915009875459516e-01  -2.0048917520759191e-01  -2.0038376392211063e-01  -2.0270416537328384e-01  -2.0556644624782602e-01  -2.0636420933509411e-01  -2.0669172715912471e-01  -2.0779190802955233e-01  -2.0903173186168120e-01  -2.0999661511080506e-01  -2.1062166433702673e-01  -2.1093010243859961e-01  -2.1076517610047052e-01  -2.1018858304636678e-01  -2.1076271815145281e-01  -2.1354807970743689e-01  -2.1348462176445074e-01  -2.0772106089741413e-01  -2.0916429795946440e-01  -2.1516227819702213e-01  -1.9938342159385725e-01  -1.9539572964957505e-01  -2.2585906404249276e-01  -1.7322786958977177e-01  -2.9843041204328263e-02  1.0962448359577610e-02  6.7626713441616667e-03  -5.4398286621691820e-02  -1.2402824193993742e-01  -1.5741595630050226e-01  -1.5799146087008750e-01  -1.5672114319440930e-01  -1.6344540334439756e-01  -1.6715744205609823e-01  -1.6756399311547776e-01  -1.6959479394553828e-01  -1.7256129789699731e-01  -1.7363604191905713e-01  -1.7437593812526622e-01  -1.7611823220607359e-01  -1.7765290172401579e-01  -1.7866867468862116e-01  -1.7951852819663186e-01  -1.8036180829110529e-01  -1.8126084386823951e-01  -1.8226150708818412e-01  -1.8286013494695930e-01  -1.8197517000652830e-01  -1.8140935554178342e-01  -1.8409246564306533e-01  -1.8366497575932994e-01  -1.7793899499534666e-01  -1.8184452066980947e-01  -1.8103907340569564e-01  -1.6200119098244142e-01  -1.7752073220667233e-01  -1.7820222477316977e-01  -5.8141134918499378e-02  2.0111842760432919e-02  6.2755332309405529e-03  -4.8918884007821385e-02  -1.0251209061439122e-01  -1.2198882585714750e-01  -1.2254446187690787e-01  -1.2606936922147577e-01  -1.3265875727607823e-01  -1.3471811852124579e-01  -1.3627578496541382e-01  -1.3927602584877888e-01  -1.4109558205707143e-01  -1.4205423678675000e-01  -1.4392033554765932e-01  -1.4553319634154255e-01  -1.4650753806318423e-01  -1.4753756737555113e-01  -1.4863052592978432e-01  -1.4967107916071720e-01  -1.5059254635190067e-01  -1.5143855502859685e-01  -1.5276997528484879e-01  -1.5432748203731667e-01  -1.5381940041815173e-01  -1.5327285574886701e-01  -1.5589374813386245e-01  -1.5315912094860762e-01  -1.4939413906318624e-01  -1.5448431228025394e-01  -1.4118770635626862e-01  -1.3465721548066514e-01  -1.5336854026307856e-01  -7.3233756609495423e-02  2.0967490361020628e-02  5.7691034715665101e-03  -3.7033980277185560e-02  -7.5561949428848946e-02  -8.7921817924318371e-02  -9.0533597277359601e-02  -9.6117692768888874e-02  -1.0140598441516818e-01  -1.0327618378564382e-01  -1.0582161182718151e-01  -1.0843063519914641e-01  -1.0978235792557058e-01  -1.1144378070361639e-01  -1.1323551500164709e-01  -1.1438018883056908e-01  -1.1564762219742368e-01  -1.1709886544372351e-01  -1.1845100674070227e-01  -1.1976563325316847e-01  -1.2110411682788932e-01  -1.2232617737653020e-01  -1.2308729338721325e-01  -1.2438315010706946e-01  -1.2626162410041933e-01  -1.2571886573941318e-01  -1.2632307499743145e-01  -1.2804049279049770e-01  -1.2271979206890905e-01  -1.2429639058520378e-01  -1.2146897395490457e-01  -1.0411919176307589e-01  -1.1992152654627958e-01  -7.5764077169710550e-02  1.6551547842558505e-02  4.9300107822238311e-03  -2.2471939161431011e-02  -4.8436412715916283e-02  -5.6862013096575827e-02  -6.0982958216874168e-02  -6.6531283527252724e-02  -7.0691815268073124e-02  -7.2812462545570097e-02  -7.5520213010786957e-02  -7.7585528394172196e-02  -7.9080879271842749e-02  -8.0856170174925496e-02  -8.2279970842929082e-02  -8.3568183638554144e-02  -8.5092541386106932e-02  -8.6497419936588132e-02  -8.7878608283619292e-02  -8.9371394756075515e-02  -9.0909741524037774e-02  -9.2667462819487359e-02  -9.4515492521084821e-02  -9.5615813493840365e-02  -9.7376003818271689e-02  -9.9104649472266451e-02  -9.8608155869878159e-02  -1.0106762691332527e-01  -9.9267567883156035e-02  -9.6209319569289256e-02  -9.9345202908902738e-02  -8.2625055032653591e-02  -8.9082514898685877e-02  -7.0201139377717464e-02  1.0516651410055970e-02  4.1600707867264540e-03  -8.0546257241944329e-03  -2.2760002617083223e-02  -2.8727959953629281e-02  -3.2928548312709569e-02  -3.7594430565318582e-02  -4.0754999851404725e-02  -4.3017105003910212e-02  -4.5343002423935741e-02  -4.7105922624588091e-02  -4.8629402843128555e-02  -5.0186586562885049e-02  -5.1496211716086510e-02  -5.2897120265806154e-02  -5.4336021168361351e-02  -5.5763479350633714e-02  -5.7372611705375803e-02  -5.9120317590176351e-02  -6.1004302273487028e-02  -6.2862591057797734e-02  -6.5036506793289942e-02  -6.7398558901088090e-02  -6.9070040375817238e-02  -7.1773108026982724e-02  -7.2778974549036118e-02  -7.4147486511329019e-02  -7.6177891568755915e-02  -7.1898053752008736e-02  -7.6141194078063523e-02  -6.5401886273501450e-02  -6.4678093290814115e-02  -6.0670994918517379e-02  5.4868938105101343e-03  1.7200311428381752e-03  5.8578495034574407e-03  9.4976914709700184e-04  -2.1648639861063233e-03  -6.1050829781738878e-03  -9.1392302701364687e-03  -1.1586670163175947e-02  -1.3574960281163145e-02  -1.5428491519717976e-02  -1.6891760020845959e-02  -1.8270874307374781e-02  -1.9563175539219220e-02  -2.0792881014448809e-02  -2.2103044084167630e-02  -2.3478856490120784e-02  -2.5004919082221397e-02  -2.6751106398462395e-02  -2.8674995954551790e-02  -3.0832098869436761e-02  -3.3330343263376909e-02  -3.5772722087624741e-02  -3.8689445881738602e-02  -4.1427548031621422e-02  -4.4295015330277597e-02  -4.7363034471919002e-02  -4.8636064727906277e-02  -5.2707401202417611e-02  -5.0399295023435250e-02  -5.3845526153657466e-02  -5.0002289442220904e-02  -4.5617981815981652e-02  -4.9784236913226018e-02  2.0516582225407120e-03  -8.5412551116498931e-04  1.9380912160627886e-02  2.3621716195541660e-02  2.3719908820580816e-02  2.0133641567193140e-02  1.8779080035058140e-02  1.7212133016321240e-02  1.5513498052742880e-02  1.4291072687278260e-02  1.3134903573186496e-02  1.2025951508972860e-02  1.1022008395074417e-02  9.9537236876054789e-03  8.7872166533580209e-03  7.4911510215945106e-03  5.9294553874732992e-03  4.1443717780210313e-03  1.9983375726693627e-03  -4.5416556658496327e-04  -3.2535828607942133e-03  -6.4778159596740126e-03  -9.8659008451412074e-03  -1.3710148221532116e-02  -1.7251754982862532e-02  -2.1719361617171220e-02  -2.4387086982265244e-02  -2.9330102386019640e-02  -3.0354449786921901e-02  -3.3419114661563894e-02  -3.5157231657322617e-02  -3.0531202510932404e-02  -3.8981283669697338e-02  6.2371159914575630e-05  -2.8327856961562633e-03  3.1594547188250124e-02  4.6517807858395786e-02  4.9298333434821942e-02  4.6643969593910192e-02  4.6150989800389813e-02  4.5993534945263009e-02  4.4354295530284450e-02  4.3842306185933842e-02  4.3064757474266961e-02  4.2259716945976925e-02  4.1600008128323041e-02  4.0807875862584948e-02  3.9828427040080612e-02  3.8679595960146917e-02  3.7184408025288121e-02  3.5292736299580768e-02  3.3043657680294949e-02  3.0261508294726673e-02  2.6998134009340282e-02  2.3253899257000357e-02  1.9075709985246419e-02  1.4371079857131075e-02  9.5334745872138783e-03  4.1150434949079207e-03  -7.4774881708440438e-04  -6.4779743685045195e-03  -1.0860851665665193e-02  -1.4827261453049381e-02  -2.0649287533099973e-02  -1.8009716248355120e-02  -2.8997221954291556e-02  -8.9593387107897860e-04  -5.5595222305628864e-03  4.0952237837110883e-02  6.9684683594241820e-02  7.5236861520703524e-02  7.3910588399649632e-02  7.3236251901046753e-02  7.4734879401710488e-02  7.3342454110909241e-02  7.3159804652942653e-02  7.3101591777755145e-02  7.2556025763282905e-02  7.2287727767186893e-02  7.1864121533794678e-02  7.1134517941011749e-02  7.0183709064554567e-02  6.8845940005136497e-02  6.6986261052936494e-02  6.4540293617779479e-02  6.1463655263723306e-02  5.7790783678728586e-02  5.3468509536577134e-02  4.8385372239462258e-02  4.2826044908196220e-02  3.6529436340265349e-02  3.0018983170166904e-02  2.2869855022988071e-02  1.5862142144458791e-02  8.4621495521769591e-03  2.4512165372773636e-03  -6.4905309185180546e-03  -7.2314952242885089e-03  -2.0224170016444470e-02  -1.1355583166389625e-03  -8.6016540647304417e-03  4.5422688967291451e-02  9.2069777914223466e-02  1.0204938287945436e-01  1.0191828094333237e-01  1.0059050359614050e-01  1.0301625657548943e-01  1.0267270707023589e-01  1.0210906914245022e-01  1.0292268872274014e-01  1.0285658878655998e-01  1.0286253801600781e-01  1.0302284299027899e-01  1.0271513032365560e-01  1.0196977805832555e-01  1.0080921678286646e-01  9.9054897948975429e-02  9.6589378858148098e-02  9.3358502318989386e-02  8.9324066175105035e-02  8.4257362690764739e-02  7.8386492848582193e-02  7.1794076158891107e-02  6.4072197467669553e-02  5.6111641332594199e-02  4.6900626476717167e-02  3.7850147777271637e-02  2.7984221603602026e-02  1.8861890713207565e-02  7.2109105625522444e-03  2.4144495223665835e-03  -1.2987842116474801e-02  -1.0619445135017125e-03  -1.0529203092769049e-02  4.3328753439622690e-02  1.1018653488746004e-01  1.2983993213787079e-01  1.3088406645030870e-01  1.2875784914371566e-01  1.3079379380335940e-01  1.3242999903006192e-01  1.3157835294189024e-01  1.3257642528740721e-01  1.3371618280250050e-01  1.3395032333042015e-01  1.3446399213799765e-01  1.3489827088880857e-01  1.3468466126114584e-01  1.3376697217786207e-01  1.3213564803033201e-01  1.2962988682217344e-01  1.2616893964460013e-01  1.2156127599021718e-01  1.1588726799445874e-01  1.0941941926707406e-01  1.0144226100879994e-01  9.2364222505524313e-02  8.2894702452162058e-02  7.1348263884805002e-02  6.0063096019355458e-02  4.7920696680747221e-02  3.4621803649170231e-02  2.0781691935018318e-02  1.1085723598622229e-02  -7.4796303535757704e-03  -1.1937484113475527e-03  -9.6109437421267423e-03  3.3897971205406344e-02  1.1842921442706937e-01  1.5655335367932074e-01  1.6034625115643186e-01  1.5774127072551966e-01  1.5792988081284595e-01  1.6094776415346421e-01  1.6128970503261519e-01  1.6139854306675974e-01  1.6352992653203760e-01  1.6516238185396995e-01  1.6595145458504904e-01  1.6674674356568919e-01  1.6724214393788384e-01  1.6695469567954876e-01  1.6567107643349929e-01  1.6330910687310499e-01  1.5974918751680844e-01  1.5493908922350566e-01  1.4903410851582688e-01  1.4136931395987665e-01  1.3191873933974113e-01  1.2210648808173022e-01  1.1047894860320370e-01  9.6368641865544266e-02  8.3284507385712456e-02  6.8204516869391579e-02  5.0254508784153433e-02  3.4473856901440648e-02  1.9158724692955615e-02  -3.7104321749039521e-03  -2.3970166247299792e-03  -5.6903101064969376e-03  1.8504900511599108e-02  1.0930089135070969e-01  1.7635523951556498e-01  1.9088745029116042e-01  1.8785186649425006e-01  1.8611816085328350e-01  1.8865855011931859e-01  1.9156260399030423e-01  1.9204392972505910e-01  1.9346008271342399e-01  1.9651932670665015e-01  1.9904051056571070e-01  2.0054442701621653e-01  2.0144062401043716e-01  2.0161315000240115e-01  2.0076005698230315e-01  1.9861941350081772e-01  1.9508732647176164e-01  1.9005633962112758e-01  1.8303747000312470e-01  1.7419673055963153e-01  1.6460854820321910e-01  1.5344769147039747e-01  1.3846137759737301e-01  1.2285045757900286e-01  1.0817291960058420e-01  8.8692227520647857e-02  6.6280664523067398e-02  4.8735876011892082e-02  2.7363176375429819e-02  -9.6680978199327255e-04  -4.2090718887005845e-03  -1.1955476350114346e-03  2.6524238151616380e-03  8.2424170067207606e-02  1.7769740439443213e-01  2.1713180464681514e-01  2.1845209107216032e-01  2.1419705892035068e-01  2.1444811766313018e-01  2.1842103315551165e-01  2.2192336850079306e-01  2.2376823056696199e-01  2.2644954300242215e-01  2.3028566897705394e-01  2.3373808513859473e-01  2.3600981413151484e-01  2.3703350062697143e-01  2.3670253434843