<?xml version="1.0"?>
<VTKFile type="UnstructuredGrid"  version="0.1"  >
<UnstructuredGrid>
<Piece  NumberOfPoints="1089" NumberOfCells="1024">
<Points>
<DataArray  type="Float64"  NumberOfComponents="3"  format="ascii">0 0 0  0.03125 0 0  0.0625 0 0  0.09375 0 0  0.125 0 0  0.15625 0 0  0.1875 0 0  0.21875 0 0  0.25 0 0  0.28125 0 0  0.3125 0 0  0.34375 0 0  0.375 0 0  0.40625 0 0  0.4375 0 0  0.46875 0 0  0.5 0 0  0.53125 0 0  0.5625 0 0  0.59375 0 0  0.625 0 0  0.65625 0 0  0.6875 0 0  0.71875 0 0  0.75 0 0  0.78125 0 0  0.8125 0 0  0.84375 0 0  0.875 0 0  0.90625 0 0  0.9375 0 0  0.96875 0 0  1 0 0  0 0.03125 0  0.03125 0.03125 0  0.0625 0.03125 0  0.09375 0.03125 0  0.125 0.03125 0  0.15625 0.03125 0  0.1875 0.03125 0  0.21875 0.03125 0  0.25 0.03125 0  0.28125 0.03125 0  0.3125 0.03125 0  0.34375 0.03125 0  0.375 0.03125 0  0.40625 0.03125 0  0.4375 0.03125 0  0.46875 0.03125 0  0.5 0.03125 0  0.53125 0.03125 0  0.5625 0.03125 0  0.59375 0.03125 0  0.625 0.03125 0  0.65625 0.03125 0  0.6875 0.03125 0  0.71875 0.03125 0  0.75 0.03125 0  0.78125 0.03125 0  0.8125 0.03125 0  0.84375 0.03125 0  0.875 0.03125 0  0.90625 0.03125 0  0.9375 0.03125 0  0.96875 0.03125 0  1 0.03125 0  0 0.0625 0  0.03125 0.0625 0  0.0625 0.0625 0  0.09375 0.0625 0  0.125 0.0625 0  0.15625 0.0625 0  0.1875 0.0625 0  0.21875 0.0625 0  0.25 0.0625 0  0.28125 0.0625 0  0.3125 0.0625 0  0.34375 0.0625 0  0.375 0.0625 0  0.40625 0.0625 0  0.4375 0.0625 0  0.46875 0.0625 0  0.5 0.0625 0  0.53125 0.0625 0  0.5625 0.0625 0  0.59375 0.0625 0  0.625 0.0625 0  0.65625 0.0625 0  0.6875 0.0625 0  0.71875 0.0625 0  0.75 0.0625 0  0.78125 0.0625 0  0.8125 0.0625 0  0.84375 0.0625 0  0.875 0.0625 0  0.90625 0.0625 0  0.9375 0.0625 0  0.96875 0.0625 0  1 0.0625 0  0 0.09375 0  0.03125 0.09375 0  0.0625 0.09375 0  0.09375 0.09375 0  0.125 0.09375 0  0.15625 0.09375 0  0.1875 0.09375 0  0.21875 0.09375 0  0.25 0.09375 0  0.28125 0.09375 0  0.3125 0.09375 0  0.34375 0.09375 0  0.375 0.09375 0  0.40625 0.09375 0  0.4375 0.09375 0  0.46875 0.09375 0  0.5 0.09375 0  0.53125 0.09375 0  0.5625 0.09375 0  0.59375 0.09375 0  0.625 0.09375 0  0.65625 0.09375 0  0.6875 0.09375 0  0.71875 0.09375 0  0.75 0.09375 0  0.78125 0.09375 0  0.8125 0.09375 0  0.84375 0.09375 0  0.875 0.09375 0  0.90625 0.09375 0  0.9375 0.09375 0  0.96875 0.09375 0  1 0.09375 0  0 0.125 0  0.03125 0.125 0  0.0625 0.125 0  0.09375 0.125 0  0.125 0.125 0  0.15625 0.125 0  0.1875 0.125 0  0.21875 0.125 0  0.25 0.125 0  0.28125 0.125 0  0.3125 0.125 0  0.34375 0.125 0  0.375 0.125 0  0.40625 0.125 0  0.4375 0.125 0  0.46875 0.125 0  0.5 0.125 0  0.53125 0.125 0  0.5625 0.125 0  0.59375 0.125 0  0.625 0.125 0  0.65625 0.125 0  0.6875 0.125 0  0.71875 0.125 0  0.75 0.125 0  0.78125 0.125 0  0.8125 0.125 0  0.84375 0.125 0  0.875 0.125 0  0.90625 0.125 0  0.9375 0.125 0  0.96875 0.125 0  1 0.125 0  0 0.15625 0  0.03125 0.15625 0  0.0625 0.15625 0  0.09375 0.15625 0  0.125 0.15625 0  0.15625 0.15625 0  0.1875 0.15625 0  0.21875 0.15625 0  0.25 0.15625 0  0.28125 0.15625 0  0.3125 0.15625 0  0.34375 0.15625 0  0.375 0.15625 0  0.40625 0.15625 0  0.4375 0.15625 0  0.46875 0.15625 0  0.5 0.15625 0  0.53125 0.15625 0  0.5625 0.15625 0  0.59375 0.15625 0  0.625 0.15625 0  0.65625 0.15625 0  0.6875 0.15625 0  0.71875 0.15625 0  0.75 0.15625 0  0.78125 0.15625 0  0.8125 0.15625 0  0.84375 0.15625 0  0.875 0.15625 0  0.90625 0.15625 0  0.9375 0.15625 0  0.96875 0.15625 0  1 0.15625 0  0 0.1875 0  0.03125 0.1875 0  0.0625 0.1875 0  0.09375 0.1875 0  0.125 0.1875 0  0.15625 0.1875 0  0.1875 0.1875 0  0.21875 0.1875 0  0.25 0.1875 0  0.28125 0.1875 0  0.3125 0.1875 0  0.34375 0.1875 0  0.375 0.1875 0  0.40625 0.1875 0  0.4375 0.1875 0  0.46875 0.1875 0  0.5 0.1875 0  0.53125 0.1875 0  0.5625 0.1875 0  0.59375 0.1875 0  0.625 0.1875 0  0.65625 0.1875 0  0.6875 0.1875 0  0.71875 0.1875 0  0.75 0.1875 0  0.78125 0.1875 0  0.8125 0.1875 0  0.84375 0.1875 0  0.875 0.1875 0  0.90625 0.1875 0  0.9375 0.1875 0  0.96875 0.1875 0  1 0.1875 0  0 0.21875 0  0.03125 0.21875 0  0.0625 0.21875 0  0.09375 0.21875 0  0.125 0.21875 0  0.15625 0.21875 0  0.1875 0.21875 0  0.21875 0.21875 0  0.25 0.21875 0  0.28125 0.21875 0  0.3125 0.21875 0  0.34375 0.21875 0  0.375 0.21875 0  0.40625 0.21875 0  0.4375 0.21875 0  0.46875 0.21875 0  0.5 0.21875 0  0.53125 0.21875 0  0.5625 0.21875 0  0.59375 0.21875 0  0.625 0.21875 0  0.65625 0.21875 0  0.6875 0.21875 0  0.71875 0.21875 0  0.75 0.21875 0  0.78125 0.21875 0  0.8125 0.21875 0  0.84375 0.21875 0  0.875 0.21875 0  0.90625 0.21875 0  0.9375 0.21875 0  0.96875 0.21875 0  1 0.21875 0  0 0.25 0  0.03125 0.25 0  0.0625 0.25 0  0.09375 0.25 0  0.125 0.25 0  0.15625 0.25 0  0.1875 0.25 0  0.21875 0.25 0  0.25 0.25 0  0.28125 0.25 0  0.3125 0.25 0  0.34375 0.25 0  0.375 0.25 0  0.40625 0.25 0  0.4375 0.25 0  0.46875 0.25 0  0.5 0.25 0  0.53125 0.25 0  0.5625 0.25 0  0.59375 0.25 0  0.625 0.25 0  0.65625 0.25 0  0.6875 0.25 0  0.71875 0.25 0  0.75 0.25 0  0.78125 0.25 0  0.8125 0.25 0  0.84375 0.25 0  0.875 0.25 0  0.90625 0.25 0  0.9375 0.25 0  0.96875 0.25 0  1 0.25 0  0 0.28125 0  0.03125 0.28125 0  0.0625 0.28125 0  0.09375 0.28125 0  0.125 0.28125 0  0.15625 0.28125 0  0.1875 0.28125 0  0.21875 0.28125 0  0.25 0.28125 0  0.28125 0.28125 0  0.3125 0.28125 0  0.34375 0.28125 0  0.375 0.28125 0  0.40625 0.28125 0  0.4375 0.28125 0  0.46875 0.28125 0  0.5 0.28125 0  0.53125 0.28125 0  0.5625 0.28125 0  0.59375 0.28125 0  0.625 0.28125 0  0.65625 0.28125 0  0.6875 0.28125 0  0.71875 0.28125 0  0.75 0.28125 0  0.78125 0.28125 0  0.8125 0.28125 0  0.84375 0.28125 0  0.875 0.28125 0  0.90625 0.28125 0  0.9375 0.28125 0  0.96875 0.28125 0  1 0.28125 0  0 0.3125 0  0.03125 0.3125 0  0.0625 0.3125 0  0.09375 0.3125 0  0.125 0.3125 0  0.15625 0.3125 0  0.1875 0.3125 0  0.21875 0.3125 0  0.25 0.3125 0  0.28125 0.3125 0  0.3125 0.3125 0  0.34375 0.3125 0  0.375 0.3125 0  0.40625 0.3125 0  0.4375 0.3125 0  0.46875 0.3125 0  0.5 0.3125 0  0.53125 0.3125 0  0.5625 0.3125 0  0.59375 0.3125 0  0.625 0.3125 0  0.65625 0.3125 0  0.6875 0.3125 0  0.71875 0.3125 0  0.75 0.3125 0  0.78125 0.3125 0  0.8125 0.3125 0  0.84375 0.3125 0  0.875 0.3125 0  0.90625 0.3125 0  0.9375 0.3125 0  0.96875 0.3125 0  1 0.3125 0  0 0.34375 0  0.03125 0.34375 0  0.0625 0.34375 0  0.09375 0.34375 0  0.125 0.34375 0  0.15625 0.34375 0  0.1875 0.34375 0  0.21875 0.34375 0  0.25 0.34375 0  0.28125 0.34375 0  0.3125 0.34375 0  0.34375 0.34375 0  0.375 0.34375 0  0.40625 0.34375 0  0.4375 0.34375 0  0.46875 0.34375 0  0.5 0.34375 0  0.53125 0.34375 0  0.5625 0.34375 0  0.59375 0.34375 0  0.625 0.34375 0  0.65625 0.34375 0  0.6875 0.34375 0  0.71875 0.34375 0  0.75 0.34375 0  0.78125 0.34375 0  0.8125 0.34375 0  0.84375 0.34375 0  0.875 0.34375 0  0.90625 0.34375 0  0.9375 0.34375 0  0.96875 0.34375 0  1 0.34375 0  0 0.375 0  0.03125 0.375 0  0.0625 0.375 0  0.09375 0.375 0  0.125 0.375 0  0.15625 0.375 0  0.1875 0.375 0  0.21875 0.375 0  0.25 0.375 0  0.28125 0.375 0  0.3125 0.375 0  0.34375 0.375 0  0.375 0.375 0  0.40625 0.375 0  0.4375 0.375 0  0.46875 0.375 0  0.5 0.375 0  0.53125 0.375 0  0.5625 0.375 0  0.59375 0.375 0  0.625 0.375 0  0.65625 0.375 0  0.6875 0.375 0  0.71875 0.375 0  0.75 0.375 0  0.78125 0.375 0  0.8125 0.375 0  0.84375 0.375 0  0.875 0.375 0  0.90625 0.375 0  0.9375 0.375 0  0.96875 0.375 0  1 0.375 0  0 0.40625 0  0.03125 0.40625 0  0.0625 0.40625 0  0.09375 0.40625 0  0.125 0.40625 0  0.15625 0.40625 0  0.1875 0.40625 0  0.21875 0.40625 0  0.25 0.40625 0  0.28125 0.40625 0  0.3125 0.40625 0  0.34375 0.40625 0  0.375 0.40625 0  0.40625 0.40625 0  0.4375 0.40625 0  0.46875 0.40625 0  0.5 0.40625 0  0.53125 0.40625 0  0.5625 0.40625 0  0.59375 0.40625 0  0.625 0.40625 0  0.65625 0.40625 0  0.6875 0.40625 0  0.71875 0.40625 0  0.75 0.40625 0  0.78125 0.40625 0  0.8125 0.40625 0  0.84375 0.40625 0  0.875 0.40625 0  0.90625 0.40625 0  0.9375 0.40625 0  0.96875 0.40625 0  1 0.40625 0  0 0.4375 0  0.03125 0.4375 0  0.0625 0.4375 0  0.09375 0.4375 0  0.125 0.4375 0  0.15625 0.4375 0  0.1875 0.4375 0  0.21875 0.4375 0  0.25 0.4375 0  0.28125 0.4375 0  0.3125 0.4375 0  0.34375 0.4375 0  0.375 0.4375 0  0.40625 0.4375 0  0.4375 0.4375 0  0.46875 0.4375 0  0.5 0.4375 0  0.53125 0.4375 0  0.5625 0.4375 0  0.59375 0.4375 0  0.625 0.4375 0  0.65625 0.4375 0  0.6875 0.4375 0  0.71875 0.4375 0  0.75 0.4375 0  0.78125 0.4375 0  0.8125 0.4375 0  0.84375 0.4375 0  0.875 0.4375 0  0.90625 0.4375 0  0.9375 0.4375 0  0.96875 0.4375 0  1 0.4375 0  0 0.46875 0  0.03125 0.46875 0  0.0625 0.46875 0  0.09375 0.46875 0  0.125 0.46875 0  0.15625 0.46875 0  0.1875 0.46875 0  0.21875 0.46875 0  0.25 0.46875 0  0.28125 0.46875 0  0.3125 0.46875 0  0.34375 0.46875 0  0.375 0.46875 0  0.40625 0.46875 0  0.4375 0.46875 0  0.46875 0.46875 0  0.5 0.46875 0  0.53125 0.46875 0  0.5625 0.46875 0  0.59375 0.46875 0  0.625 0.46875 0  0.65625 0.46875 0  0.6875 0.46875 0  0.71875 0.46875 0  0.75 0.46875 0  0.78125 0.46875 0  0.8125 0.46875 0  0.84375 0.46875 0  0.875 0.46875 0  0.90625 0.46875 0  0.9375 0.46875 0  0.96875 0.46875 0  1 0.46875 0  0 0.5 0  0.03125 0.5 0  0.0625 0.5 0  0.09375 0.5 0  0.125 0.5 0  0.15625 0.5 0  0.1875 0.5 0  0.21875 0.5 0  0.25 0.5 0  0.28125 0.5 0  0.3125 0.5 0  0.34375 0.5 0  0.375 0.5 0  0.40625 0.5 0  0.4375 0.5 0  0.46875 0.5 0  0.5 0.5 0  0.53125 0.5 0  0.5625 0.5 0  0.59375 0.5 0  0.625 0.5 0  0.65625 0.5 0  0.6875 0.5 0  0.71875 0.5 0  0.75 0.5 0  0.78125 0.5 0  0.8125 0.5 0  0.84375 0.5 0  0.875 0.5 0  0.90625 0.5 0  0.9375 0.5 0  0.96875 0.5 0  1 0.5 0  0 0.53125 0  0.03125 0.53125 0  0.0625 0.53125 0  0.09375 0.53125 0  0.125 0.53125 0  0.15625 0.53125 0  0.1875 0.53125 0  0.21875 0.53125 0  0.25 0.53125 0  0.28125 0.53125 0  0.3125 0.53125 0  0.34375 0.53125 0  0.375 0.53125 0  0.40625 0.53125 0  0.4375 0.53125 0  0.46875 0.53125 0  0.5 0.53125 0  0.53125 0.53125 0  0.5625 0.53125 0  0.59375 0.53125 0  0.625 0.53125 0  0.65625 0.53125 0  0.6875 0.53125 0  0.71875 0.53125 0  0.75 0.53125 0  0.78125 0.531
[...]
<PointData  Scalars="v_sol"> 
<DataArray  type="Float64"  Name="v_sol"  format="ascii">-1.8829966950187162e-05  1.4871546533357937e-04  4.5489312701758140e-04  4.1317394320385196e-04  3.2196314715268921e-04  4.4361757308681991e-04  -8.4204480550355970e-04  1.3401182814753603e-03  2.0255779501484779e-03  -1.0721116854479518e-03  -6.3925064527333179e-03  -1.0952284082960314e-02  -1.1428883673526982e-02  -8.6890988655706162e-03  -5.0346713291568564e-03  -2.1616154688579021e-03  6.2615051843637783e-04  3.7907495900656001e-03  5.0808995206870411e-03  6.0139132050730454e-03  6.9533463142941263e-03  7.9349007291606988e-03  8.4783510531585560e-03  6.7206225923469552e-03  3.9643819672120625e-03  8.3522253633591984e-04  -5.7219882429641118e-04  -3.5010780740623334e-03  -3.1970779911501524e-03  -1.2398285900647480e-03  -4.3299059357899034e-04  -7.1024962207657575e-05  1.0046573681061627e-04  2.6776553953922324e-04  -7.3419057150673356e-04  -2.5188979108624067e-03  -2.3279455376337055e-03  -1.5504676452403026e-03  -1.2472079204573624e-03  3.2102724406852628e-04  -2.6815984582268110e-03  -4.0513766417267583e-03  1.3887870578718421e-03  2.0546870991697327e-02  3.8252759447493186e-02  4.8243780816978839e-02  4.9008687307772358e-02  4.1797465800582606e-02  2.9116116016243740e-02  1.3369003027448185e-02  -4.0518033096464999e-03  -2.2714470001706996e-02  -4.2252681687461977e-02  -5.8751381575359835e-02  -6.5783528343202946e-02  -5.6222428227098921e-02  -3.1789255055731727e-02  -7.8411576680873021e-03  6.8108485731196433e-03  1.5645406401805135e-02  1.9199575260428148e-02  1.3215122035489127e-02  5.8747057685006685e-03  1.7360728669021687e-03  6.7394935119249815e-05  -4.1823153414515646e-04  6.8365562132785616e-04  -4.6309697488421658e-03  -8.5543274524015403e-03  -7.0587813856819882e-03  -2.4681129662337022e-03  -7.3945447085949187e-04  -1.4352567536613649e-03  7.1185047678391242e-03  4.2618932668277716e-02  8.9924939729406489e-02  1.2148390827878097e-01  1.2973155036030207e-01  1.1758424782103098e-01  9.4569075851952872e-02  6.7776608989175618e-02  4.0721537030347893e-02  1.3957067776796454e-02  -1.3656792587029948e-02  -4.4110954614795819e-02  -7.7689797933152518e-02  -1.1289339787300723e-01  -1.4271975784523455e-01  -1.5366632252672718e-01  -1.3163253157754753e-01  -7.9060187890742539e-02  -2.5938776120132026e-02  2.3791172018554491e-03  1.7002525711812422e-02  2.7610179877909709e-02  2.0838064886739251e-02  9.9711373528760111e-03  2.7408679669679342e-03  -2.2934467233216952e-04  6.0366324905542087e-04  -1.3195448978207843e-02  -1.6819195110620702e-02  -6.3391775434803012e-03  1.4953168122229460e-03  4.4709382622937404e-03  3.2891876084673796e-02  1.0007153676733339e-01  1.6506889664930172e-01  1.9563831250660824e-01  1.9061000576512344e-01  1.6413938012421289e-01  1.3111242221639896e-01  9.8809244689056691e-02  6.8820702058444067e-02  4.0315917015286112e-02  1.2153300247641698e-02  -1.6595301457436266e-02  -4.6777113537228084e-02  -8.0486194517825529e-02  -1.1910835687346071e-01  -1.6259527914199512e-01  -2.0444141809736505e-01  -2.2651261424450822e-01  -2.0408539652601956e-01  -1.3072606826568342e-01  -4.5751713839527280e-02  -2.7815519691551182e-04  1.5447631974736087e-02  2.5509796448399055e-02  1.7747786134662578e-02  9.0524538348286838e-03  1.0816823051694533e-04  -7.3595590654890089e-04  -2.8449321359449827e-02  -1.9342090469482081e-02  3.1703071021093061e-03  1.2917350931388885e-02  5.7963627730531229e-02  1.4963813734423415e-01  2.2626490403936766e-01  2.5093765286719338e-01  2.3241499383717693e-01  1.9627057622868005e-01  1.5939570579310691e-01  1.2616958828323077e-01  9.5476577471651489e-02  6.6100404872816015e-02  3.7413136558014648e-02  9.0168311146088132e-03  -1.9833158817094288e-02  -4.9862921528992687e-02  -8.0738187905676648e-02  -1.1296028985980625e-01  -1.4835456060694949e-01  -1.9097680863655364e-01  -2.4095155329812804e-01  -2.7986782432434604e-01  -2.6817083477443321e-01  -1.8046683695489335e-01  -6.0514788700015226e-02  4.7514196873192594e-03  1.6394044389968058e-02  2.2422013743528500e-02  1.3279631160099873e-02  1.7205040700057994e-03  -6.9117389393766595e-03  -4.4368223437265993e-02  -7.9708319020913420e-03  1.8671589994143537e-02  7.1030666808129472e-02  1.8076226864491696e-01  2.7107940574903561e-01  2.9350996095987236e-01  2.6554753100774209e-01  2.2427772424585707e-01  1.8764086577990036e-01  1.5627523748130420e-01  1.2688527288101717e-01  9.7943383011324561e-02  6.8820169888921298e-02  3.9152826531159132e-02  8.6633505204839704e-03  -2.2575201752235749e-02  -5.4411283056821108e-02  -8.7067298072220994e-02  -1.1962209633201436e-01  -1.5040189160812334e-01  -1.7930855282555394e-01  -2.1363955120992684e-01  -2.6464877749005083e-01  -3.1910338789900111e-01  -3.1950712743089360e-01  -2.1585248530613915e-01  -6.0918732041935229e-02  1.5063056885628191e-02  1.7062641386935810e-02  2.0181557966748063e-02  5.6760018385827412e-04  -2.0695856972645966e-02  -4.7654749316063255e-02  1.0938661574040580e-02  6.8528978218124634e-02  1.8790014524226981e-01  2.9883872333502021e-01  3.2906192346347402e-01  2.9707931282146249e-01  2.5334644441101595e-01  2.1863553198955152e-01  1.8980666644341013e-01  1.6157917444761882e-01  1.3215238910722699e-01  1.0145478780275408e-01  7.0148386769594492e-02  3.8876401285316997e-02  7.8404164128691410e-03  -2.3319505101062819e-02  -5.5190482572329912e-02  -8.8052374401356562e-02  -1.2239689329225423e-01  -1.5783189578983234e-01  -1.9085160915966701e-01  -2.1622364546153416e-01  -2.4062453469259071e-01  -2.8836064729592642e-01  -3.5411859907991738e-01  -3.5691725671648383e-01  -2.2295225388591644e-01  -3.6466406596923288e-02  2.5369988752858293e-02  1.7370080664956870e-02  4.7615382156169297e-03  -3.2344180033217672e-02  -3.8631479424420939e-02  5.0193126881514151e-02  1.6803685892522477e-01  3.0450085472852423e-01  3.5865274421199317e-01  3.3034585730659788e-01  2.8427197311834379e-01  2.5088173011138892e-01  2.2387988429110572e-01  1.9573671756443647e-01  1.6474315012003110e-01  1.3230032165947833e-01  1.0026205191871462e-01  6.9148498440011544e-02  3.8411602820379476e-02  7.4032212407531377e-03  -2.4101796721591108e-02  -5.5927229398287488e-02  -8.7947057976598256e-02  -1.2015308208432976e-01  -1.5361200772350650e-01  -1.9044437608684545e-01  -2.2795870434716137e-01  -2.5417589355176795e-01  -2.7139839798602189e-01  -3.1828786411121046e-01  -3.9224418887151713e-01  -3.7575192738473490e-01  -1.8712939837735929e-01  1.0413482849810238e-02  2.2634414544515476e-02  4.2380066608529842e-03  -3.7625343911466366e-02  -1.3234334819227726e-02  1.2605350363772155e-01  2.7826626803783372e-01  3.7537372613205089e-01  3.6589962170636836e-01  3.1715167970062197e-01  2.8270006149064431e-01  2.5709749564753703e-01  2.2893892300300367e-01  1.9674364914844894e-01  1.6362212997951445e-01  1.3217532792896022e-01  1.0174036550608342e-01  7.0933786753736891e-02  3.9459637759090088e-02  7.6091820279270556e-03  -2.4449718263198264e-02  -5.6890355573210934e-02  -8.9779198346922093e-02  -1.2270187032726519e-01  -1.5451116980291849e-01  -1.8558877071115121e-01  -2.2131786122763566e-01  -2.6232623665802390e-01  -2.8948140592333865e-01  -3.0244043377220464e-01  -3.5741153492261918e-01  -4.3260692701367015e-01  -3.5695355630458353e-01  -9.6598885488380568e-02  4.5618510491194517e-02  -8.5578756786687041e-03  -3.5774674953366933e-02  3.9585049076221415e-02  2.2009368405141866e-01  3.6154839590132265e-01  3.9877176719473933e-01  3.5416149467973346e-01  3.1354100298065418e-01  2.8907341948216914e-01  2.6179881228500923e-01  2.2924765031435243e-01  1.9592339427409192e-01  1.6515123069633125e-01  1.3493942441003470e-01  1.0346670455837283e-01  7.1487009378561922e-02  3.9643417016137321e-02  7.8459035554858080e-03  -2.4175408894200296e-02  -5.6469908850544967e-02  -8.9144082261110758e-02  -1.2264526080245668e-01  -1.5705369954686549e-01  -1.8986010079485868e-01  -2.1922787293167637e-01  -2.5390644180545963e-01  -2.9728205403276503e-01  -3.2095006693188716e-01  -3.3438610805807151e-01  -4.1005947842845042e-01  -4.5827501804578680e-01  -2.6138878743399691e-01  2.0827007812827387e-02  1.1212517257361141e-02  -2.0358790982337907e-02  1.1374303820728787e-01  3.0608108545172019e-01  4.0864607558436944e-01  3.9697702066431567e-01  3.4659377476654973e-01  3.1880587931045756e-01  2.9465259825751838e-01  2.6250848107478908e-01  2.2888249716008091e-01  1.9817048365750300e-01  1.6802355307356601e-01  1.3591671560797061e-01  1.0370075474518406e-01  7.2073374245353997e-02  4.0372057237648654e-02  8.3842438145148041e-03  -2.3876883370933327e-02  -5.6395699176937659e-02  -8.9049668806384458e-02  -1.2161042226797751e-01  -1.5492288040429011e-01  -1.9054362710659514e-01  -2.2468765732862506e-01  -2.5302344891002515e-01  -2.8938442348741272e-01  -3.3356302244009600e-01  -3.4718239839760018e-01  -3.7634197011828613e-01  -4.7421883388445207e-01  -4.1368154926249384e-01  -6.9694906096933643e-02  4.9650307385329912e-02  6.9158383050905645e-03  1.9401147251849993e-01  3.7118835544928896e-01  4.2984312634998229e-01  3.9021173086857674e-01  3.4774822046475357e-01  3.2588861968072325e-01  2.9696847622922251e-01  2.6246164434518265e-01  2.3109926019713550e-01  2.0112607382569408e-01  1.6889398421381049e-01  1.3649227000935008e-01  1.0515991605506425e-01  7.3481533256127454e-02  4.1436917367950805e-02  9.2222193052752151e-03  -2.3182260486611095e-02  -5.5827559528859906e-02  -8.8906298627915686e-02  -1.2228895907074898e-01  -1.5495912952266599e-01  -1.8789623471932168e-01  -2.2464429293363164e-01  -2.5903939974774748e-01  -2.8680928049151616e-01  -3.2928926104009887e-01  -3.6705414781279655e-01  -3.7179765374066998e-01  -4.4633798285404597e-01  -5.0546056635325143e-01  -2.0385115487252631e-01  7.7304885028865941e-02  3.7303111801744684e-02  2.6746748152261057e-01  4.1547993614065049e-01  4.3875147261864833e-01  3.8717411416607317e-01  3.5389883694277535e-01  3.3123435990723055e-01  2.9782943066695444e-01  2.6415324398828693e-01  2.3425874337453606e-01  2.0250710038831082e-01  1.6970549050554981e-01  1.3835658108382007e-01  1.0670045921413476e-01  7.4472957634603654e-02  4.2359367096792881e-02  1.0143734685057412e-02  -2.2255478712111303e-02  -5.4905674793256698e-02  -8.7747645923037826e-02  -1.2122829168322875e-01  -1.5556416471427756e-01  -1.8858632235481940e-01  -2.2188087476434398e-01  -2.6032037060430357e-01  -2.9257928708293246e-01  -3.2340663461191316e-01  -3.7322853628380342e-01  -3.9035986069013162e-01  -4.1953396768166851e-01  -5.3703335516664785e-01  -3.4918307908648222e-01  8.9337356634312817e-02  6.1631589976452690e-02  3.2741323216684182e-01  4.4430776075287481e-01  4.4386509886888054e-01  3.8868363020288138e-01  3.6112368530089595e-01  3.3477234084234658e-01  2.9915220519446323e-01  2.6707865599136721e-01  2.3656142231177790e-01  2.0351102316385772e-01  1.7152372785132033e-01  1.4007644122929017e-01  1.0773025235569210e-01  7.5663439250977516e-02  4.3643843805516447e-02  1.1367391103210910e-02  -2.1106240767794614e-02  -5.3857763712738760e-02  -8.6913137775114599e-02  -1.1995616336955159e-01  -1.5380539581156449e-01  -1.8904609958057597e-01  -2.2213137221832693e-01  -2.5752449386407250e-01  -2.9700968497818342e-01  -3.2534257317175519e-01  -3.6881442965593730e-01  -4.1025161520135384e-01  -4.1426763903892905e-01  -5.3105967566008339e-01  -4.7301882168715320e-01  7.3630322227327266e-02  7.4905855875399927e-02  3.7153890670527884e-01  4.6279129925771179e-01  4.4853404160786647e-01  3.9273372285504665e-01  3.6751660270620656e-01  3.3744440109249202e-01  3.0129621759244118e-01  2.6996955079833329e-01  2.3820089813481560e-01  2.0500685221125287e-01  1.7340891296609140e-01  1.4132075115185536e-01  1.0902154059643721e-01  7.7173966734161659e-02  4.5022433511894284e-02  1.2742561230014786e-02  -1.9684016277166108e-02  -5.2345978660799326e-02  -8.5405716634224346e-02  -1.1900805031071428e-01  -1.5237515392876305e-01  -1.8706870147910906e-01  -2.2286755061307728e-01  -2.5604861256324257e-01  -2.9612846986379510e-01  -3.3155107474036183e-01  -3.6399636680877900e-01  -4.2025097954933555e-01  -4.2664815675691559e-01  -5.1071519985588520e-01  -5.6454214192926899e-01  3.4921165765144584e-02  7.5547551666717144e-02  3.9981496474962797e-01  4.7430281657370776e-01  4.5307077307612625e-01  3.9746399080973782e-01  3.7244303971694592e-01  3.3987929528572619e-01  3.0370250130388676e-01  2.7235974528365003e-01  2.3970001228701759e-01  2.0668351021718387e-01  1.7494926581026862e-01  1.4257793234424987e-01  1.1051425270801134e-01  7.8606353834299897e-02  4.6431660773329067e-02  1.4305570613702140e-02  -1.8016525264228464e-02  -5.0630141219645854e-02  -8.3475099636263789e-02  -1.1688727266849593e-01  -1.5102993028281206e-01  -1.8488492832399522e-01  -2.2122995401129678e-01  -2.5634725775379158e-01  -2.9271626889080565e-01  -3.3561695754189091e-01  -3.6388292995457472e-01  -4.1993962315294175e-01  -4.4611801836865123e-01  -4.8981457517883864e-01  -6.2467887295316304e-01  -1.8622212037879515e-02  6.5818210128762128e-02  4.1189125000922117e-01  4.8043704837063800e-01  4.5710542363917622e-01  4.0157110257985912e-01  3.7590130335414623e-01  3.4212112275956719e-01  3.0588863074689743e-01  2.7424033503587819e-01  2.4114166844207799e-01  2.0818445838215327e-01  1.7626320118031288e-01  1.4387383672093548e-01  1.1192644598672748e-01  8.0006838760782420e-02  4.8023894112820667e-02  1.6081264603827465e-02  -1.6103008417561397e-02  -4.8490040442749280e-02  -8.1319833981841949e-02  -1.1441755139871060e-01  -1.4838513752954430e-01  -1.8287123740258915e-01  -2.1798616406863977e-01  -2.5563695911638956e-01  -2.8993758888494325e-01  -3.3476300370147971e-01  -3.6744075494060346e-01  -4.1364776283025922e-01  -4.6384937213479932e-01  -4.7390177887690466e-01  -6.6023918362942735e-01  -7.7155104785467027e-02  4.7971770930764414e-02  4.0766801287911736e-01  4.8146963047630997e-01  4.6047862353983010e-01  4.0447926135996903e-01  3.7790510971955188e-01  3.4406567349831929e-01  3.0761111045445089e-01  2.7561988634964685e-01  2.4242408277571162e-01  2.0938544375685952e-01  1.7739088281356491e-01  1.4507643965000358e-01  1.1320215429019308e-01  8.1438465946802027e-02  4.9687511253418908e-02  1.7958495836883158e-02  -1.3913837302416771e-02  -4.6046843697711497e-02  -7.8475150563540097e-02  -1.1156224174480092e-01  -1.4500094422902812e-01  -1.7976730123931764e-01  -2.1444625614068694e-01  -2.5241397778733671e-01  -2.8788056251951727e-01  -3.3008721291459636e-01  -3.7090679967166607e-01  -4.0557854846150876e-01  -4.7522245584874290e-01  -4.6392771920280418e-01  -6.7762375313317780e-01  -1.3398613121846603e-01  2.2557188973207035e-02  3.8718984113342703e-01  4.7792522562804224e-01  4.6221260647385326e-01  4.0703567771966687e-01  3.7790990008479430e-01  3.4591309198314835e-01  3.0871265025203215e-01  2.7650585176704273e-01  2.4343211661784619e-01  2.1027422512413310e-01  1.7822269552546674e-01  1.4612014639820547e-01  1.1431267808658505e-01  8.2822486019565669e-02  5.1368988837115166e-02  1.9967936024117637e-02  -1.1515489757363818e-02  -4.3227337210943274e-02  -7.5240093765273658e-02  -1.0786490615955419e-01  -1.4106134048783311e-01  -1.7535270011043894e-01  -2.1020429554297404e-01  -2.4738850651894806e-01  -2.8455122563487417e-01  -3.2393421655874360e-01  -3.7088215087955845e-01  -3.9814787976294030e-01  -4.7878663042789910e-01  -4.5833683236383260e-01  -6.8237539112903001e-01  -1.8467143170361525e-01  -5.7355873319892411e-03  3.4834648368618909e-01  4.6978059823728013e-01  4.6133431159066923e-01  4.1011203652493328e-01  3.7612405170847046e-01  3.4715213502001119e-01  3.0962671395442815e-01  2.7664593110825725e-01  2.4413927414830217e-01  2.1081980774063191e-01  1.7870296306815928e-01  1.4688955529550016e-01  1.1524275322595001e-01  8.4029806152750935e-02  5.3024077362058608e-02  2.2084773694164880e-02  -8.8999841343953331e-03  -3.9974647405067273e-02  -7.1522150586345826e-02  -1.0352702059263355e-01  -1.3617054076252663e-01  -1.7000384058355852e-01  -2.0442030313601173e-01  -2.4137387703114604e-01  -2.7846491937049050e-01  -3.1745614335011368e-01  -3.6598196646900427e-01  -3.9147009033175090e-01  -4.7526762952560431e-01  -4.5452961040492296e-01  -6.7869093236260081e-01  -2.2686764561257958e-01  -2.8856016632198816e-02  2.8919885523333932e-01  4.5402115883436767e-01  4.5834570613271525e-01  4.1336621497952225e-01  3.7404769204787575e-01  3.4670044367430780e-01  3.1094900265316522e-01  2.7607903416258101e-01  2.4425797422087672e-01  2.1112194464297826e-01  1.7870714583229066e-01  1.4724084859126063e-01  1.1596040904419276e-01  8.5045235795437574e-02  5.4527856673932534e-02  2.4207242594727302e-02  -6.0852446408259393e-03  -3.6484253926935994e-02  -6.7300803565121234e-02  -9.8382475290558644e-02  -1.3039604817123168e-01  -1.6352758947976226e-01  -1.9711038353617602e-01  -2.3398237519592230e-01  -2.6985975894101205e-01  -3.0969225431773389e-01  -3.5723307601806459e-01  -3.8340764788888371e-01  -4.6701269939435258e-01  -4.4904381190436243e-01  -6.7005163781653954e-01  -2.5955739342201056e-01  -4.0196574718920124e-02  2.1230164949615055e-01  4.2406230317601407e-01  4.5333621622249054e-01  4.1611335159283741e-01  3.7339172177281804e-01  3.4411956849683256e-01  3.1210612721999281e-01  2.7574117250758534e-01  2.4321388203447411e-01  2.1110601637133239e-01  1.7841793205650244e-01  1.4690925353888279e-01  1.1619623598202934e-01  8.5835398830541018e-02  5.5889812915331114e-02  2.6277711086664272e-02  -3.1744338806185481e-03  -3.2697726516901830e-02  -6.2417334801236062e-02  -9.2522782138636683e-02  -1.2385004109186393e-01  -1.5553377742298458e-01  -1.8852126801944960e-01  -2.2473773575993300e-01  -2.5894648363640582e-01  -2.9986090774615209e-01  -3.4551050892908708e-01  -3.7181301902104974e-01  -4.5622607249742592e-01  -4.3875244165061444e-01  -6.5851603031125994e-01  -2.8367900503745369e-01  -3.7846530997348166e-02  1.2725279574025133e-01  3.7113623431193388e-01  4.4390261676458409e-01  4.1810602046650364e-01  3.7476959943100946e-01  3.4090414436387789e-01  3.1136497011866499e-01  2.7630586924808037e-01  2.4151488228826337e-01  2.0976469813918425e-01  1.7791029699525768e-01  1.4622247267336863e-01  1.1569866128427864e-01  8.6041638236515214e-02  5.6924123181753009e-02  2.8226773572835033e-02  -2.0137198012341810e-04  -2.8555163834653539e-02  -5.7078397223401439e-02  -8.6308063250720268e-02  -1.1595137186513450e-01  -1.4613537166641161e-01  -1.7891294182864159e-01  -2.1301623932757971e-01  -2.4578078317766103e-01  -2.8803895749935715e-01  -3.3017417388285597e-01  -3.5627772168274541e-01  -4.4339457830217810e-01  -4.2199700534517942e-01  -6.4385190397164238e-01  -3.0289697296199491e-01  -2.5663826908153702e-02  5.0614971336744342e-02  2.9010276318842781e-01  4.1998044064758411e-01  4.1916688911074923e-01  3.7771302839037130e-01  3.3925406086252513e-01  3.0828547701089271e-01  2.7622740308252736e-01  2.4075206954108266e-01  2.0713448073251603e-01  1.7585723062602790e-01  1.4502029504107297e-01  1.1479836582876581e-01  8.5653913526758399e-02  5.7434040136476495e-02  2.9850405712940269e-02  2.6819850010053503e-03  -2.4392025560092061e-02  -5.1561212161448738e-02  -7.8915686308961397e-02  -1.0668666821495355e-01  -1.3633571627360683e-01  -1.6755866223525237e-01  -1.9807537562638092e-01  -2.3144018541599573e-01  -2.7361405396746075e-01  -3.1032898824052635e-01  -3.3715681474322995e-01  -4.2831984481054747e-01  -3.9801476463997904e-01  -6.2421282394309174e-01  -3.2216616836542211e-01  -9.8495621430830411e-03  -1.7689571525414708e-03  1.8683265942091803e-01  3.6800647623240118e-01  4.1348022817924707e-01  3.8206177250763046e-01  3.4007867702284644e-01  3.0473841903651622e-01  2.7310185641337170e-01  2.3970058552866788e-01  2.0502685581531746e-01  1.7242170888942773e-01  1.4205392454083995e-01  1.1285830766842790e-01  8.4649721747002082e-02  5.7463743970683906e-02  3.1155048032279489e-02  5.4330386963274959e-03  -1.9908276300979841e-02  -4.5122985498682662e-02  -7.0894601922710285e-02  -9.7584378717985698e