<?xml version="1.0"?>
<VTKFile type="UnstructuredGrid"  version="0.1"  >
<UnstructuredGrid>
<Piece  NumberOfPoints="16641" NumberOfCells="16384">
<Points>
<DataArray  type="Float64"  NumberOfComponents="3"  format="ascii">0 0 0  0.0078125 0 0  0.015625 0 0  0.0234375 0 0  0.03125 0 0  0.0390625 0 0  0.046875 0 0  0.0546875 0 0  0.0625 0 0  0.0703125 0 0  0.078125 0 0  0.0859375 0 0  0.09375 0 0  0.1015625 0 0  0.109375 0 0  0.1171875 0 0  0.125 0 0  0.1328125 0 0  0.140625 0 0  0.1484375 0 0  0.15625 0 0  0.1640625 0 0  0.171875 0 0  0.1796875 0 0  0.1875 0 0  0.1953125 0 0  0.203125 0 0  0.2109375 0 0  0.21875 0 0  0.2265625 0 0  0.234375 0 0  0.2421875 0 0  0.25 0 0  0.2578125 0 0  0.265625 0 0  0.2734375 0 0  0.28125 0 0  0.2890625 0 0  0.296875 0 0  0.3046875 0 0  0.3125 0 0  0.3203125 0 0  0.328125 0 0  0.3359375 0 0  0.34375 0 0  0.3515625 0 0  0.359375 0 0  0.3671875 0 0  0.375 0 0  0.3828125 0 0  0.390625 0 0  0.3984375 0 0  0.40625 0 0  0.4140625 0 0  0.421875 0 0  0.4296875 0 0  0.4375 0 0  0.4453125 0 0  0.453125 0 0  0.4609375 0 0  0.46875 0 0  0.4765625 0 0  0.484375 0 0  0.4921875 0 0  0.5 0 0  0.5078125 0 0  0.515625 0 0  0.5234375 0 0  0.53125 0 0  0.5390625 0 0  0.546875 0 0  0.5546875 0 0  0.5625 0 0  0.5703125 0 0  0.578125 0 0  0.5859375 0 0  0.59375 0 0  0.6015625 0 0  0.609375 0 0  0.6171875 0 0  0.625 0 0  0.6328125 0 0  0.640625 0 0  0.6484375 0 0  0.65625 0 0  0.6640625 0 0  0.671875 0 0  0.6796875 0 0  0.6875 0 0  0.6953125 0 0  0.703125 0 0  0.7109375 0 0  0.71875 0 0  0.7265625 0 0  0.734375 0 0  0.7421875 0 0  0.75 0 0  0.7578125 0 0  0.765625 0 0  0.7734375 0 0  0.78125 0 0  0.7890625 0 0  0.796875 0 0  0.8046875 0 0  0.8125 0 0  0.8203125 0 0  0.828125 0 0  0.8359375 0 0  0.84375 0 0  0.8515625 0 0  0.859375 0 0  0.8671875 0 0  0.875 0 0  0.8828125 0 0  0.890625 0 0  0.8984375 0 0  0.90625 0 0  0.9140625 0 0  0.921875 0 0  0.9296875 0 0  0.9375 0 0  0.9453125 0 0  0.953125 0 0  0.9609375 0 0  0.96875 0 0  0.9765625 0 0  0.984375 0 0  0.9921875 0 0  1 0 0  0 0.0078125 0  0.0078125 0.0078125 0  0.015625 0.0078125 0  0.0234375 0.0078125 0  0.03125 0.0078125 0  0.0390625 0.0078125 0  0.046875 0.0078125 0  0.0546875 0.0078125 0  0.0625 0.0078125 0  0.0703125 0.0078125 0  0.078125 0.0078125 0  0.0859375 0.0078125 0  0.09375 0.0078125 0  0.1015625 0.0078125 0  0.109375 0.0078125 0  0.1171875 0.0078125 0  0.125 0.0078125 0  0.1328125 0.0078125 0  0.140625 0.0078125 0  0.1484375 0.0078125 0  0.15625 0.0078125 0  0.1640625 0.0078125 0  0.171875 0.0078125 0  0.1796875 0.0078125 0  0.1875 0.0078125 0  0.1953125 0.0078125 0  0.203125 0.0078125 0  0.2109375 0.0078125 0  0.21875 0.0078125 0  0.2265625 0.0078125 0  0.234375 0.0078125 0  0.2421875 0.0078125 0  0.25 0.0078125 0  0.2578125 0.0078125 0  0.265625 0.0078125 0  0.2734375 0.0078125 0  0.28125 0.0078125 0  0.2890625 0.0078125 0  0.296875 0.0078125 0  0.3046875 0.0078125 0  0.3125 0.0078125 0  0.3203125 0.0078125 0  0.328125 0.0078125 0  0.3359375 0.0078125 0  0.34375 0.0078125 0  0.3515625 0.0078125 0  0.359375 0.0078125 0  0.3671875 0.0078125 0  0.375 0.0078125 0  0.3828125 0.0078125 0  0.390625 0.0078125 0  0.3984375 0.0078125 0  0.40625 0.0078125 0  0.4140625 0.0078125 0  0.421875 0.0078125 0  0.4296875 0.0078125 0  0.4375 0.0078125 0  0.4453125 0.0078125 0  0.453125 0.0078125 0  0.4609375 0.0078125 0  0.46875 0.0078125 0  0.4765625 0.0078125 0  0.484375 0.0078125 0  0.4921875 0.0078125 0  0.5 0.0078125 0  0.5078125 0.0078125 0  0.515625 0.0078125 0  0.5234375 0.0078125 0  0.53125 0.0078125 0  0.5390625 0.0078125 0  0.546875 0.0078125 0  0.5546875 0.0078125 0  0.5625 0.0078125 0  0.5703125 0.0078125 0  0.578125 0.0078125 0  0.5859375 0.0078125 0  0.59375 0.0078125 0  0.6015625 0.0078125 0  0.609375 0.0078125 0  0.6171875 0.0078125 0  0.625 0.0078125 0  0.6328125 0.0078125 0  0.640625 0.0078125 0  0.6484375 0.0078125 0  0.65625 0.0078125 0  0.6640625 0.0078125 0  0.671875 0.0078125 0  0.6796875 0.0078125 0  0.6875 0.0078125 0  0.6953125 0.0078125 0  0.703125 0.0078125 0  0.7109375 0.0078125 0  0.71875 0.0078125 0  0.7265625 0.0078125 0  0.734375 0.0078125 0  0.7421875 0.0078125 0  0.75 0.0078125 0  0.7578125 0.0078125 0  0.765625 0.0078125 0  0.7734375 0.0078125 0  0.78125 0.0078125 0  0.7890625 0.0078125 0  0.796875 0.0078125 0  0.8046875 0.0078125 0  0.8125 0.0078125 0  0.8203125 0.0078125 0  0.828125 0.0078125 0  0.8359375 0.0078125 0  0.84375 0.0078125 0  0.8515625 0.0078125 0  0.859375 0.0078125 0  0.8671875 0.0078125 0  0.875 0.0078125 0  0.8828125 0.0078125 0  0.890625 0.0078125 0  0.8984375 0.0078125 0  0.90625 0.0078125 0  0.9140625 0.0078125 0  0.921875 0.0078125 0  0.9296875 0.0078125 0  0.9375 0.0078125 0  0.9453125 0.0078125 0  0.953125 0.0078125 0  0.9609375 0.0078125 0  0.96875 0.0078125 0  0.9765625 0.0078125 0  0.984375 0.0078125 0  0.9921875 0.0078125 0  1 0.0078125 0  0 0.015625 0  0.0078125 0.015625 0  0.015625 0.015625 0  0.0234375 0.015625 0  0.03125 0.015625 0  0.0390625 0.015625 0  0.046875 0.015625 0  0.0546875 0.015625 0  0.0625 0.015625 0  0.0703125 0.015625 0  0.078125 0.015625 0  0.0859375 0.015625 0  0.09375 0.015625 0  0.1015625 0.015625 0  0.109375 0.015625 0  0.1171875 0.015625 0  0.125 0.015625 0  0.1328125 0.015625 0  0.140625 0.015625 0  0.1484375 0.015625 0  0.15625 0.015625 0  0.1640625 0.015625 0  0.171875 0.015625 0  0.1796875 0.015625 0  0.1875 0.015625 0  0.1953125 0.015625 0  0.203125 0.015625 0  0.2109375 0.015625 0  0.21875 0.015625 0  0.2265625 0.015625 0  0.234375 0.015625 0  0.2421875 0.015625 0  0.25 0.015625 0  0.2578125 0.015625 0  0.265625 0.015625 0  0.2734375 0.015625 0  0.28125 0.015625 0  0.2890625 0.015625 0  0.296875 0.015625 0  0.3046875 0.015625 0  0.3125 0.015625 0  0.3203125 0.015625 0  0.328125 0.015625 0  0.3359375 0.015625 0  0.34375 0.015625 0  0.3515625 0.015625 0  0.359375 0.015625 0  0.3671875 0.015625 0  0.375 0.015625 0  0.3828125 0.015625 0  0.390625 0.015625 0  0.3984375 0.015625 0  0.40625 0.015625 0  0.4140625 0.015625 0  0.421875 0.015625 0  0.4296875 0.015625 0  0.4375 0.015625 0  0.4453125 0.015625 0  0.453125 0.015625 0  0.4609375 0.015625 0  0.46875 0.015625 0  0.4765625 0.015625 0  0.484375 0.015625 0  0.4921875 0.015625 0  0.5 0.015625 0  0.5078125 0.015625 0  0.515625 0.015625 0  0.5234375 0.015625 0  0.53125 0.015625 0  0.5390625 0.015625 0  0.546875 0.015625 0  0.5546875 0.015625 0  0.5625 0.015625 0  0.5703125 0.015625 0  0.578125 0.015625 0  0.5859375 0.015625 0  0.59375 0.015625 0  0.6015625 0.015625 0  0.609375 0.015625 0  0.6171875 0.015625 0  0.625 0.015625 0  0.6328125 0.015625 0  0.640625 0.015625 0  0.6484375 0.015625 0  0.65625 0.015625 0  0.6640625 0.015625 0  0.671875 0.015625 0  0.6796875 0.015625 0  0.6875 0.015625 0  0.6953125 0.015625 0  0.703125 0.015625 0  0.7109375 0.015625 0  0.71875 0.015625 0  0.7265625 0.015625 0  0.734375 0.015625 0  0.7421875 0.015625 0  0.75 0.015625 0  0.7578125 0.015625 0  0.765625 0.015625 0  0.7734375 0.015625 0  0.78125 0.015625 0  0.7890625 0.015625 0  0.796875 0.015625 0  0.8046875 0.015625 0  0.8125 0.015625 0  0.8203125 0.015625 0  0.828125 0.015625 0  0.8359375 0.015625 0  0.84375 0.015625 0  0.8515625 0.015625 0  0.859375 0.015625 0  0.8671875 0.015625 0  0.875 0.015625 0  0.8828125 0.015625 0  0.890625 0.015625 0  0.8984375 0.015625 0  0.90625 0.015625 0  0.9140625 0.015625 0  0.921875 0.015625 0  0.9296875 0.015625 0  0.9375 0.015625 0  0.9453125 0.015625 0  0.953125 0.015625 0  0.9609375 0.015625 0  0.96875 0.015625 0  0.9765625 0.015625 0  0.984375 0.015625 0  0.9921875 0.015625 0  1 0.015625 0  0 0.0234375 0  0.0078125 0.0234375 0  0.015625 0.0234375 0  0.0234375 0.0234375 0  0.03125 0.0234375 0  0.0390625 0.0234375 0  0.046875 0.0234375 0  0.0546875 0.0234375 0  0.0625 0.0234375 0  0.0703125 0.0234375 0  0.078125 0.0234375 0  0.0859375 0.0234375 0  0.09375 0.0234375 0  0.1015625 0.0234375 0  0.109375 0.0234375 0  0.1171875 0.0234375 0  0.125 0.0234375 0  0.1328125 0.0234375 0  0.140625 0.0234375 0  0.1484375 0.0234375 0  0.15625 0.0234375 0  0.1640625 0.0234375 0  0.171875 0.0234375 0  0.1796875 0.0234375 0  0.1875 0.0234375 0  0.1953125 0.0234375 0  0.203125 0.0234375 0  0.2109375 0.0234375 0  0.21875 0.0234375 0  0.2265625 0.0234375 0  0.234375 0.0234375 0  0.2421875 0.0234375 0  0.25 0.0234375 0  0.2578125 0.0234375 0  0.265625 0.0234375 0  0.2734375 0.0234375 0  0.28125 0.0234375 0  0.2890625 0.0234375 0  0.296875 0.0234375 0  0.3046875 0.0234375 0  0.3125 0.0234375 0  0.3203125 0.0234375 0  0.328125 0.0234375 0  0.3359375 0.0234375 0  0.34375 0.0234375 0  0.3515625 0.0234375 0  0.359375 0.0234375 0  0.3671875 0.0234375 0  0.375 0.0234375 0  0.3828125 0.0234375 0  0.390625 0.0234375 0  0.3984375 0.0234375 0  0.40625 0.0234375 0  0.4140625 0.0234375 0  0.421875 0.0234375 0  0.4296875 0.0234375 0  0.4375 0.0234375 0  0.4453125 0.0234375 0  0.453125 0.0234375 0  0.4609375 0.0234375 0  0.46875 0.0234375 0  0.4765625 0.0234375 0  0.484375 0.0234375 0  0.4921875 0.0234375 0  0.5 0.0234375 0  0.5078125 0.0234375 0  0.515625 0.0234375 0  0.5234375 0.0234375 0  0.53125 0.0234375 0  0.5390625 0.0234375 0  0.546875 0.0234375 0  0.5546875 0.0234375 0  0.5625 0.0234375 0  0.5703125 0.0234375 0  0.578125 0.0234375 0  0.5859375 0.0234375 0  0.59375 0.0234375 0  0.6015625 0.0234375 0  0.609375 0.0234375 0  0.6171875 0.0234375 0  0.625 0.0234375 0  0.6328125 0.0234375 0  0.640625 0.0234375 0  0.6484375 0.0234375 0  0.65625 0.0234375 0  0.6640625 0.0234375 0  0.671875 0.0234375 0  0.6796875 0.0234375 0  0.6875 0.0234375 0  0.6953125 0.0234375 0  0.703125 0.0234375 0  0.7109375 0.0234375 0  0.71875 0.0234375 0  0.7265625 0.0234375 0  0.734375 0.0234375 0  0.7421875 0.0234375 0  0.75 0.0234375 0  0.7578125 0.0234375 0  0.765625 0.0234375 0  0.7734375 0.0234375 0  0.78125 0.0234375 0  0.7890625 0.0234375 0  0.796875 0.0234375 0  0.8046875 0.0234375 0  0.8125 0.0234375 0  0.8203125 0.0234375 0  0.828125 0.0234375 0  0.8359375 0.0234375 0  0.84375 0.0234375 0  0.8515625 0.0234375 0  0.859375 0.0234375 0  0.8671
[...]
<PointData  Scalars="v_sol"> 
<DataArray  type="Float64"  Name="v_sol"  format="ascii">3.0846536526524803e-10  1.5568259095293523e-07  3.0731683435690096e-07  4.5515196472125822e-07  5.9913318296277650e-07  7.3920561129272768e-07  8.7531556463521884e-07  1.0074102714809425e-06  1.1354380119344015e-06  1.2593481453978666e-06  1.3790911692971194e-06  1.4946187710413361e-06  1.6058838833488266e-06  1.7128407402639189e-06  1.8154449346126273e-06  1.9136534767271284e-06  2.0074248545010215e-06  2.0967190948068931e-06  2.1814978262851322e-06  2.2617243435356439e-06  2.3373636727362196e-06  2.4083826387111176e-06  2.4747499334745218e-06  2.5364361862772446e-06  2.5934140351817252e-06  2.6456582001836367e-06  2.6931455579265381e-06  2.7358552180130281e-06  2.7737686009548395e-06  2.8068695177867403e-06  2.8351442513689539e-06  2.8585816394167652e-06  2.8771731592703999e-06  2.8909130144454340e-06  2.8997982229970182e-06  2.9038287077205723e-06  2.9030073882250919e-06  2.8973402749034631e-06  2.8868365648319627e-06  2.8715087396571231e-06  2.8513726654574780e-06  2.8264476946445393e-06  2.7967567699363545e-06  2.7623265304273143e-06  2.7231874197868159e-06  2.6793737966363428e-06  2.6309240471282651e-06  2.5778806997666100e-06  2.5202905425110175e-06  2.4582047421896872e-06  2.3916789662734562e-06  2.3207735070370937e-06  2.2455534081644359e-06  2.1660885938066806e-06  2.0824540001668824e-06  1.9947297096291670e-06  1.9030010874843695e-06  1.8073589212993235e-06  1.7078995629416572e-06  1.6047250733554462e-06  1.4979433700800568e-06  1.3876683775806411e-06  1.2740201804548878e-06  1.1571251795083647e-06  1.0371162507941669e-06  9.1413290765456875e-07  7.8832146578594861e-07  6.5983521139087326e-07  5.2883457249878463e-07  3.9548729344631757e-07  2.5996861259841158e-07  1.2246144338265816e-07  -1.6843441369751715e-08  -1.5774722165285943e-07  -3.0004283908175870e-07  -4.4351480220671662e-07  -5.8793898823025150e-07  -7.3308244113712676e-07  -8.7870316616474663e-07  -1.0245499205104508e-06  -1.1703620002871959e-06  -1.3158690236317917e-06  -1.4607907098952593e-06  -1.6048366548833889e-06  -1.7477061020531872e-06  -1.8890877096567214e-06  -2.0286593137149960e-06  -2.1660876867531393e-06  -2.3010282923065580e-06  -2.4331250350518532e-06  -2.5620100065119140e-06  -2.6873032263395723e-06  -2.8086123789950078e-06  -2.9255325458108900e-06  -3.0376459324212698e-06  -3.1445215913885444e-06  -3.2457151399932330e-06  -3.3407684731527151e-06  -3.4292094713509803e-06  -3.5105517034732324e-06  -3.5842941245858296e-06  -3.6499207684553953e-06  -3.7069004347646655e-06  -3.7546863710300240e-06  -3.7927159490105361e-06  -3.8204103356099440e-06  -3.8371741581763446e-06  -3.8423951640948513e-06  -3.8354438745799188e-06  -3.8156732326477194e-06  -3.7824182450999965e-06  -3.7349956184479693e-06  -3.6727033887439135e-06  -3.5948205451613947e-06  -3.5006066472626785e-06  -3.3893014358479695e-06  -3.2601244373016563e-06  -3.1122745613799169e-06  -2.9449296920892321e-06  -2.7572462725367362e-06  -2.5483588800080285e-06  -2.3173798048526378e-06  -2.0633985815798926e-06  -1.7854816653840176e-06  -1.4826715298686439e-06  -1.1539878927283024e-06  -7.9842096740648220e-07  -4.1495438800074542e-07  -2.4776963651717600e-09  -1.5437058108178876e-09  -7.7910926656026764e-07  -1.5379586920247198e-06  -2.2777955593204361e-06  -2.9983456288912664e-06  -3.6993342663379529e-06  -4.3804928060896798e-06  -5.0415571546907557e-06  -5.6822684813157918e-06  -6.3023733565293731e-06  -6.9016240460583168e-06  -7.4797787708855312e-06  -8.0366019840972130e-06  -8.5718646512309730e-06  -9.0853445378039386e-06  -9.5768265032060963e-06  -1.0046102801237360e-05  -1.0492973387475127e-05  -1.0917246233497885e-05  -1.1318737648130414e-05  -1.1697272605829530e-05  -1.2052685082327880e-05  -1.2384818397655880e-05  -1.2693525566689934e-05  -1.2978669657349282e-05  -1.3240124156524832e-05  -1.3477773343996164e-05  -1.3691512674320677e-05  -1.3881249166936459e-05  -1.4046901804588637e-05  -1.4188401940200472e-05  -1.4305693712400584e-05  -1.4398734469746568e-05  -1.4467495203862934e-05  -1.4511960991662085e-05  -1.4532131446748086e-05  -1.4528021180197406e-05  -1.4499660270831673e-05  -1.4447094745136205e-05  -1.4370387067145067e-05  -1.4269616638188641e-05  -1.4144880306854508e-05  -1.3996292889321011e-05  -1.3823987700185411e-05  -1.3628117093935033e-05  -1.3408853017328445e-05  -1.3166387572796159e-05  -1.2900933593053509e-05  -1.2612725227148507e-05  -1.2302018538056271e-05  -1.1969092112100098e-05  -1.1614247680304235e-05  -1.1237810751999349e-05  -1.0840131260677835e-05  -1.0421584222512504e-05  -9.9825704076028772e-06  -9.5235170242059852e-06  -9.0448784162245434e-06  -8.5471367739427792e-06  -8.0308028585735779e-06  -7.4964167405010412e-06  -6.9445485516007740e-06  -6.3757992519749399e-06  -5.7908014110154827e-06  -5.1902200033112182e-06  -4.5747532195915471e-06  -3.9451332927830995e-06  -3.3021273395162800e-06  -2.6465382175087538e-06  -1.9792053987362516e-06  -1.3010058588350495e-06  -6.1285498309167211e-07  8.4292511046367456e-08  7.8944163425676412e-07  1.5015561684686051e-06  2.2195576925792161e-06  2.9423245901330009e-06  3.6686910390747747e-06  4.3974459831950794e-06  5.1273320847116059e-06  5.8570446581032762e-06  6.5852305846904928e-06  7.3104872075851028e-06  8.0313612069025280e-06  8.7463474546997898e-06  9.4538878496770373e-06  1.0152370130983333e-05  1.0840126670793678e-05  1.1515433245766417e-05  1.2176507786571338e-05  1.2821509105266370e-05  1.3448535600583298e-05  1.4055623940126367e-05  1.4640747719480389e-05  1.5201816098166710e-05  1.5736672411529644e-05  1.6243092758404131e-05  1.6718784564444646e-05  1.7161385120476885e-05  1.7568460095301520e-05  1.7937502023283710e-05  1.8265928765566068e-05  1.8551081944712730e-05  1.8790225352924487e-05  1.8980543332603479e-05  1.9119139129396258e-05  1.9203033217203303e-05  1.9229161594614932e-05  1.9194374052311290e-05  1.9095432411366512e-05  1.8929008731566364e-05  1.8691683489373308e-05  1.8379943725456622e-05  1.7990181160893099e-05  1.7518690281797211e-05  1.6961666391818381e-05  1.6315203632110840e-05  1.5575292968453787e-05  1.4737820143860712e-05  1.3798563600833491e-05  1.2753192355206373e-05  1.1597263887805971e-05  1.0326221799933394e-05  8.9353941896232426e-06  7.4199891470892678e-06  5.7751008662126183e-06  3.9956759118673669e-06  2.0766278961178804e-06  1.2399559798025247e-08  -6.9693970692781351e-09  -3.5174604748009185e-06  -6.9434534498033554e-06  -1.0283610047883225e-05  -1.3536692149878753e-05  -1.6701459851065976e-05  -1.9776700205013459e-05  -2.2761220901778373e-05  -2.5653853393606175e-05  -2.8453453517225757e-05  -3.1158902822002273e-05  -3.3769109743343442e-05  -3.6283010852929366e-05  -3.8699572124312224e-05  -4.1017790231074957e-05  -4.3236693873571668e-05  -4.5355345135917765e-05  -4.7372840873559706e-05  -4.9288314131948331e-05  -5.1100935596876308e-05  -5.2809915077035144e-05  -5.4414503019352555e-05  -5.5913992057664368e-05  -5.7307718595316978e-05  -5.8595064422307038e-05  -5.9775458367445876e-05  -6.0848377986347989e-05  -6.1813351285656311e-05  -6.2669958484210477e-05  -6.3417833811829592e-05  -6.4056667346271164e-05  -6.4586206889109897e-05  -6.5006259881064985e-05  -6.5316695357531493e-05  -6.5517445945010834e-05  -6.5608509899122219e-05  -6.5589953184830489e-05  -6.5461911599624240e-05  -6.5224592940368176e-05  -6.4878279214712154e-05  -6.4423328897494190e-05  -6.3860179233084553e-05  -6.3189348584483701e-05  -6.2411438829832765e-05  -6.1527137807095104e-05  -6.0537221807838874e-05  -5.9442558120845388e-05  -5.8244107626357452e-05  -5.6942927441849594e-05  -5.5540173620088297e-05  -5.4037103900426692e-05  -5.2435080514136416e-05  -5.0735573044778385e-05  -4.8940161344247786e-05  -4.7050538505687665e-05  -4.5068513894023014e-05  -4.2996016235121530e-05  -4.0835096764549449e-05  -3.8587932436668698e-05  -3.6256829195454243e-05  -3.3844225307608931e-05  -3.1352694759186773e-05  -2.8784950716863095e-05  -2.6143849054505946e-05  -2.3432391946440224e-05  -2.0653731528450307e-05  -1.7811173627302734e-05  -1.4908181560111628e-05  -1.1948380004816810e-05  -8.9355589424980765e-06  -5.8736776728960784e-06  -2.7668689043851531e-06  3.8055708075158664e-07  3.5641081840715103e-06  6.7791061709991213e-06  1.0020682271828058e-05  1.3283772702055545e-05  1.6563114101317618e-05  1.9853238889464428e-05  2.3148470538183906e-05  2.6442918757342353e-05  2.9730474594519756e-05  3.3004805446185630e-05  3.6259349979453607e-05  3.9487312962745762e-05  4.2681660004410289e-05  4.5835112197410092e-05  4.8940140668583013e-05  5.1988961031622592e-05  5.4973527741677619e-05  5.7885528350183610e-05  6.0716377658912348e-05  6.3457211770865654e-05  6.6098882036813843e-05  6.8631948896435657e-05  7.1046675611564669e-05  7.3333021890193553e-05  7.5480637400017576e-05  7.7478855169333478e-05  7.9316684873467790e-05  8.0982806005874908e-05  8.2465560931184874e-05  8.3752947818576887e-05  8.4832613454535058e-05  8.5691845932048860e-05  8.6317567215003842e-05  8.6696325575908855e-05  8.6814287904838275e-05  8.6657231887530642e-05  8.6210538051375213e-05  8.5459181676586748e-05  8.4387724570587019e-05  8.2980306704210309e-05  8.1220637707027414e-05  7.9091988219956745e-05  7.6577181102983368e-05  7.3658582495660896e-05  7.0318092729725496e-05  6.6537137085244594e-05  6.2296656411635985e-05  5.7577097524476140e-05  5.2358403697808834e-05  4.6620004051982400e-05  4.0340806289819616e-05  3.3499176205326330e-05  2.6072965606777910e-05  1.8039359418140027e-05  9.3753941868488210e-06  5.5980584945335948e-08  -1.5790422999788828e-08  -7.9694419330187371e-06  -1.5731647759521002e-05  -2.3299375781443128e-05  -3.0669820810971391e-05  -3.7840173612808046e-05  -4.4807686038466046e-05  -5.1569656693431201e-05  -5.8123438022168449e-05  -6.4466437716266691e-05  -7.0596121724149748e-05  -7.6510016909346913e-05  -8.2205713883186645e-05  -8.7680869872255418e-05  -9.2933211659577763e-05  -9.7960538590571709e-05  -1.0276072564761232e-04  -1.0733172659377676e-04  -1.1167157718712045e-04  -1.1577839846668779e-04  -1.1965040011149872e-04  -1.2328588387382881e-04  -1.2668324708800961e-04  -1.2984098625609932e-04  -1.3275770071178040e-04  -1.3543209636369814e-04  -1.3786298951983916e-04  -1.4004931079408589e-04  -1.4199010909649788e-04  -1.4368455570875092e-04  -1.4513194844611868e-04  -1.4633171590757056e-04  -1.4728342181531895e-04  -1.4798676944546079e-04  -1.4844160615122196e-04  -1.4864792798043348e-04  -1.4860588438864950e-04  -1.4831578304960388e-04  -1.4777809476468690e-04  -1.4699345847314849e-04  -1.4596268636445661e-04  -1.4468676909472523e-04  -1.4316688110895424e-04  -1.4140438607074181e-04  -1.3940084240121755e-04  -1.3715800892911422e-04  -1.3467785065377906e-04  -1.3196254462292831e-04  -1.2901448592707613e-04  -1.2583629381253522e-04  -1.2243081791494297e-04  -1.1880114461527374e-04  -1.1495060352043937e-04  -1.1088277407020838e-04  -1.0660149227283608e-04  -1.0211085757132097e-04  -9.7415239842430233e-05  -9.2519286530714560e-05  -8.7427929919443181e-05  -8.2146394541077485e-05  -7.6680204729127658e-05  -7.1035192313858957e-05  -6.5217504464266552e-05  -5.9233611678300296e-05  -5.3090315924057370e-05  -4.6794758934306445e-05  -4.0354430656499164e-05  -3.3777177860991830e-05  -2.7071212910147085e-05  -2.0245122690424413e-05  -1.3307877710326546e-05  -6.2688413668650167e-06  8.6222061709278093e-07  8.0751305814160870e-06  1.5359289140999690e-05  2.2703665218859739e-05  3.0096785896864135e-05  3.7526726081736354e-05  4.4981097983275053e-05  5.2447040401565531e-05  5.9911207820699854e-05  6.7359759305757731e-05  7.4778347199847101e-05  8.2152105618377538e-05  8.9465638737117869e-05  9.6703008871389069e-05  1.0384772434262281e-04  1.1088272712897822e-04  1.1779038029733732e-04  1.2455245521265858e-04  1.3115011852145666e-04  1.3756391890640184e-04  1.4377377360772617e-04  1.4975895470825174e-04  1.5549807517897937e-04  1.6096907468076430e-04  1.6614920511852716e-04  1.7101501594480480e-04  1.7554233920829065e-04  1.7970627434334691e-04  1.8348117269747664e-04  1.8684062179188550e-04  1.8975742931108208e-04  1.9220360681842507e-04  1.9415035319246234e-04  1.9556803778020629e-04  1.9642618326333588e-04  1.9669344823274986e-04  1.9633760946685805e-04  1.9532554391002975e-04  1.9362321034594810e-04  1.9119563076125815e-04  1.8800687139562363e-04  1.8402002347291574e-04  1.7919718360895668e-04  1.7349943389115692e-04  1.6688682162432371e-04  1.5931833874154432e-04  1.5075190086064695e-04  1.4114432603441198e-04  1.3045131299229852e-04  1.1862741960098189e-04  1.0562603881439082e-04  9.1399382234863468e-05  7.5898433636170941e-05  5.9073012352979793e-05  4.0871426595503180e-05  2.1241648616072587e-05  1.2683413291054656e-07  -2.7840067045306007e-08  -1.4050911577575166e-05  -2.7736445513685967e-05  -4.1079095925643199e-05  -5.4073916983174948e-05  -6.6715955720250092e-05  -7.9000366879041357e-05  -9.0922387633518269e-05  -1.0247735008236570e-04  -1.1366068373045675e-04  -1.2446792079543189e-04  -1.3489470089427004e-04  -1.4493677603763438e-04  -1.5459001568544025e-04  -1.6385041193245459e-04  -1.7271408480805636e-04  -1.8117728769703249e-04  -1.8923641288228835e-04  -1.9688799721193900e-04  -2.0412872789286790e-04  -2.1095544841295914e-04  -2.1736516459430031e-04  -2.2335505077955011e-04  -2.2892245615383758e-04  -2.3406491120454717e-04  -2.3878013432124568e-04  -2.4306603853837530e-04  -2.4692073842292976e-04  -2.5034255710971526e-04  -2.5333003348674215e-04  -2.5588192953322428e-04  -2.5799723781288260e-04  -2.5967518912502072e-04  -2.6091526031619234e-04  -2.6171718225514041e-04  -2.6208094797381374e-04  -2.6200682097707122e-04  -2.6149534372401625e-04  -2.6054734628390934e-04  -2.5916395516958738e-04  -2.5734660235108252e-04  -2.5509703445274141e-04  -2.5241732213681219e-04  -2.4930986967656402e-04  -2.4577742472199469e-04  -2.4182308826146376e-04  -2.3745032478243567e-04  -2.3266297263455240e-04  -2.2746525459839143e-04  -2.2186178866330936e-04  -2.1585759901775466e-04  -2.0945812725556637e-04  -2.0266924380183139e-04  -1.9549725956161693e-04  -1.8794893779551636e-04  -1.8003150622555370e-04  -1.7175266937514803e-04  -1.6312062114703249e-04  -1.5414405764272351e-04  -1.4483219022783350e-04  -1.3519475884676781e-04  -1.2524204559105816e-04  -1.1498488852542082e-04  -1.0443469577541090e-04  -9.3603459881151204e-05  -8.2503772421275873e-05  -7.1148838911244404e-05  -5.9552493980505923e-05  -4.7729216833173964e-05  -3.5694146996260061e-05  -2.3463100360242119e-05  -1.1052585516727241e-05  1.5201796024842678e-06  1.4237250779673635e-05  2.7079940254438991e-05  4.0028799150989019e-05  5.3063599584083531e-05  6.6163316439142559e-05  7.9306108821231339e-05  9.2469301167485399e-05  1.0562936401818993e-04  1.1876189444100932e-04  1.3184159610282647e-04  1.4484225898395451e-04  1.5773673872895464e-04  1.7049693562889336e-04  1.8309377322891233e-04  1.9549717655520141e-04  2.0767604995619351e-04  2.1959825455147633e-04  2.3123058528242961e-04  2.4253874755908979e-04  2.5348733349620531e-04  2.6403979773251561e-04  2.7415843282748971e-04  2.8380434422837738e-04  2.9293742480099750e-04  3.0151632891827542e-04  3.0949844609940076e-04  3.1683987419241287e-04  3.2349539209434872e-04  3.2941843200117078e-04  3.3456105118004001e-04  3.3887390325799185e-04  3.4230620901868415e-04  3.4480572670000708e-04  3.4631872178542697e-04  3.4678993628124553e-04  3.4616255747163180e-04  3.4437818614464598e-04  3.4137680428061298e-04  3.3709674219456443e-04  3.3147464512544911e-04  3.2444543926339045e-04  3.1594229720656203e-04  3.0589660283968979e-04  2.9423791562385623e-04  2.8089393429582316e-04  2.6579045994251687e-04  2.4885135853563978e-04  2.2999852256912383e-04  2.0915183308448538e-04  1.8622911726418024e-04  1.6114611945984515e-04  1.3381641921938732e-04  1.0415154311969722e-04  7.2060353375541324e-05  3.7451120015031995e-05  2.2362107487490736e-07  -4.2952015687891015e-08  -2.1677930668989976e-05  -4.2792151962171307e-05  -6.3377368073161956e-05  -8.3425948500871400e-05  -1.0293025173655802e-04  -1.2188280245041521e-04  -1.4027625249018135e-04  -1.5810340015607723e-04  -1.7535719402819556e-04  -1.9203074115356988e-04  -2.0811731427643898e-04  -2.2361035954356211e-04  -2.3850350430396969e-04  -2.5279056510934536e-04  -2.6646555589055599e-04  -2.7952269632092224e-04  -2.9195642036758726e-04  -3.0376138503477560e-04  -3.1493247930215588e-04  -3.2546483326176034e-04  -3.3535382745693488e-04  -3.4459510242674369e-04  -3.5318456845949365e-04  -3.6111841555896008e-04  -3.6839312362685648e-04  -3.7500547286552910e-04  -3.8095255440436654e-04  -3.8623178115389825e-04  -3.9084089889149020e-04  -3.9477799758254713e-04  -3.9804152294122496e-04  -4.0063028823463805e-04  -4.0254348633482386e-04  -4.0378070202257225e-04  -4.0434192454747261e-04  -4.0422756044822971e-04  -4.0343844663781971e-04  -4.0197586375794944e-04  -3.9984154980730863e-04  -3.9703771404796728e-04  -3.9356705119479406e-04  -3.8943275589257943e-04  -3.8463853748554449e-04  -3.7918863508404907e-04  -3.7308783293351396e-04  -3.6634147609053658e-04  -3.5895548641120135e-04  -3.5093637885667665e-04  -3.4229127812142947e-04  -3.3302793558923923e-04  -3.2315474662240586e-04  -3.1268076818967742e-04  -3.0161573683811969e-04  -2.8997008701485405e-04  -2.7775496974418346e-04  -2.6498227166587776e-04  -2.5166463444049962e-04  -2.3781547452751976e-04  -2.2344900334259410e-04  -2.0858024779966470e-04  -1.9322507124439704e-04  -1.7740019478513000e-04  -1.6112321902755122e-04  -1.4441264621980733e-04  -1.2728790281447321e-04  -1.0976936245389158e-04  -9.1878369385750439e-05  -7.3637262315922510e-05  -5.5069398705088616e-05  -3.6199179516356699e-05  -1.7052074421177932e-05  2.3453525296135205e-06  2.1965416761788217e-05  4.1779286553756554e-05  6.1756955925063942e-05  8.1867217029294568e-05  1.0207763204416330e-04  1.2235450455069476e-04  1.4266285039330623e-04  1.6296636801313631e-04  1.8322740824624909e-04  2.0340694357822846e-04  2.2346453684697395e-04  2.4335830938496236e-04  2.6304490859265379e-04  2.8247947493396605e-04  3.0161560834469675e-04  3.2040533404549754e-04  3.3879906774979794e-04  3.5674558025728168e-04  3.7419196142421076e-04  3.9108358350019973e-04  4.0736406382199506e-04  4.2297522685504860e-04  4.3785706557242433e-04  4.5194770216066177e-04  4.6518334804311422e-04  4.7749826321015910e-04  4.8882471484504634e-04  4.9909293523600618e-04  5.0823107896317838e-04  5.1616517934862185e-04  5.2281910415998651e-04  5.2811451055540242e-04  5.3197079925830439e-04  5.3430506795107749e-04  5.3503206387562859e-04  5.3406413562836802e-04  5.3131118413876166e-04  5.2668061281855411e-04  5.2007727686884705e-04  5.1140343173337508e-04  5.0055868068492814e-04  4.8743992153175557e-04  4.7194129243169504e-04  4.5395411679796964e-04  4.3336684729395377e-04  4.1006500886404550e-04  3.8393114093155972e-04  3.5484473821216001e-04  3.2268219212699554e-04  2.8731672537453732e-04  2.4861834724027075e-04  2.0645372710781154e-04  1.6068636704561642e-04  1.1117565844136136e-04  5.7780079155305790e-05  3.4500552214576685e-07  -6.0963322705944368e-08  -3.0768259938512637e-05  -6.0736427102424597e-05  -8.9953758367663519e-05  -1.1840942348205691e-04  -1.4609257657167781e-04  -1.7299260763094162e-04  -1.9909908716298806e-04  -2.2440179353765469e-04  -2.4889071842291299e-04  -2.7255607840496348e-04  -2.9538832525016155e-04  -3.1737815684137837e-04  -3.3851652824838646e-04  -3.5879466308306324e-04  -3.7820406510459016e-04  -3.9673653008974604e-04  -4.1438415797015579e-04  -4.3113936524190202e-04  -4.4699489765205570e-04  -4.6194384316702966e-04  -4.7597964522769144e-04  -4.8909611629606713e-04  -5.0128745169888077e-04  -5.1254824377294024e-04  -5.2287349631752222e-04  -5.3225863935925941e-04  -5.4069954423457815e-04  -5.4819253899532426e-04  -5.5473442414308489e-04  -5.6032248869776718e-04  -5.6495452660612633e-04  -5.6862885349589555e-04  -5.7134432378160385e-04  -5.7310034812781347e-04  -5.7389691127604221e-04  -5.7373459024108930e