<?xml version="1.0"?>
<VTKFile type="UnstructuredGrid"  version="0.1"  >
<UnstructuredGrid>
<Piece  NumberOfPoints="16641" NumberOfCells="16384">
<Points>
<DataArray  type="Float64"  NumberOfComponents="3"  format="ascii">0 0 0  0.0078125 0 0  0.015625 0 0  0.0234375 0 0  0.03125 0 0  0.0390625 0 0  0.046875 0 0  0.0546875 0 0  0.0625 0 0  0.0703125 0 0  0.078125 0 0  0.0859375 0 0  0.09375 0 0  0.1015625 0 0  0.109375 0 0  0.1171875 0 0  0.125 0 0  0.1328125 0 0  0.140625 0 0  0.1484375 0 0  0.15625 0 0  0.1640625 0 0  0.171875 0 0  0.1796875 0 0  0.1875 0 0  0.1953125 0 0  0.203125 0 0  0.2109375 0 0  0.21875 0 0  0.2265625 0 0  0.234375 0 0  0.2421875 0 0  0.25 0 0  0.2578125 0 0  0.265625 0 0  0.2734375 0 0  0.28125 0 0  0.2890625 0 0  0.296875 0 0  0.3046875 0 0  0.3125 0 0  0.3203125 0 0  0.328125 0 0  0.3359375 0 0  0.34375 0 0  0.3515625 0 0  0.359375 0 0  0.3671875 0 0  0.375 0 0  0.3828125 0 0  0.390625 0 0  0.3984375 0 0  0.40625 0 0  0.4140625 0 0  0.421875 0 0  0.4296875 0 0  0.4375 0 0  0.4453125 0 0  0.453125 0 0  0.4609375 0 0  0.46875 0 0  0.4765625 0 0  0.484375 0 0  0.4921875 0 0  0.5 0 0  0.5078125 0 0  0.515625 0 0  0.5234375 0 0  0.53125 0 0  0.5390625 0 0  0.546875 0 0  0.5546875 0 0  0.5625 0 0  0.5703125 0 0  0.578125 0 0  0.5859375 0 0  0.59375 0 0  0.6015625 0 0  0.609375 0 0  0.6171875 0 0  0.625 0 0  0.6328125 0 0  0.640625 0 0  0.6484375 0 0  0.65625 0 0  0.6640625 0 0  0.671875 0 0  0.6796875 0 0  0.6875 0 0  0.6953125 0 0  0.703125 0 0  0.7109375 0 0  0.71875 0 0  0.7265625 0 0  0.734375 0 0  0.7421875 0 0  0.75 0 0  0.7578125 0 0  0.765625 0 0  0.7734375 0 0  0.78125 0 0  0.7890625 0 0  0.796875 0 0  0.8046875 0 0  0.8125 0 0  0.8203125 0 0  0.828125 0 0  0.8359375 0 0  0.84375 0 0  0.8515625 0 0  0.859375 0 0  0.8671875 0 0  0.875 0 0  0.8828125 0 0  0.890625 0 0  0.8984375 0 0  0.90625 0 0  0.9140625 0 0  0.921875 0 0  0.9296875 0 0  0.9375 0 0  0.9453125 0 0  0.953125 0 0  0.9609375 0 0  0.96875 0 0  0.9765625 0 0  0.984375 0 0  0.9921875 0 0  1 0 0  0 0.0078125 0  0.0078125 0.0078125 0  0.015625 0.0078125 0  0.0234375 0.0078125 0  0.03125 0.0078125 0  0.0390625 0.0078125 0  0.046875 0.0078125 0  0.0546875 0.0078125 0  0.0625 0.0078125 0  0.0703125 0.0078125 0  0.078125 0.0078125 0  0.0859375 0.0078125 0  0.09375 0.0078125 0  0.1015625 0.0078125 0  0.109375 0.0078125 0  0.1171875 0.0078125 0  0.125 0.0078125 0  0.1328125 0.0078125 0  0.140625 0.0078125 0  0.1484375 0.0078125 0  0.15625 0.0078125 0  0.1640625 0.0078125 0  0.171875 0.0078125 0  0.1796875 0.0078125 0  0.1875 0.0078125 0  0.1953125 0.0078125 0  0.203125 0.0078125 0  0.2109375 0.0078125 0  0.21875 0.0078125 0  0.2265625 0.0078125 0  0.234375 0.0078125 0  0.2421875 0.0078125 0  0.25 0.0078125 0  0.2578125 0.0078125 0  0.265625 0.0078125 0  0.2734375 0.0078125 0  0.28125 0.0078125 0  0.2890625 0.0078125 0  0.296875 0.0078125 0  0.3046875 0.0078125 0  0.3125 0.0078125 0  0.3203125 0.0078125 0  0.328125 0.0078125 0  0.3359375 0.0078125 0  0.34375 0.0078125 0  0.3515625 0.0078125 0  0.359375 0.0078125 0  0.3671875 0.0078125 0  0.375 0.0078125 0  0.3828125 0.0078125 0  0.390625 0.0078125 0  0.3984375 0.0078125 0  0.40625 0.0078125 0  0.4140625 0.0078125 0  0.421875 0.0078125 0  0.4296875 0.0078125 0  0.4375 0.0078125 0  0.4453125 0.0078125 0  0.453125 0.0078125 0  0.4609375 0.0078125 0  0.46875 0.0078125 0  0.4765625 0.0078125 0  0.484375 0.0078125 0  0.4921875 0.0078125 0  0.5 0.0078125 0  0.5078125 0.0078125 0  0.515625 0.0078125 0  0.5234375 0.0078125 0  0.53125 0.0078125 0  0.5390625 0.0078125 0  0.546875 0.0078125 0  0.5546875 0.0078125 0  0.5625 0.0078125 0  0.5703125 0.0078125 0  0.578125 0.0078125 0  0.5859375 0.0078125 0  0.59375 0.0078125 0  0.6015625 0.0078125 0  0.609375 0.0078125 0  0.6171875 0.0078125 0  0.625 0.0078125 0  0.6328125 0.0078125 0  0.640625 0.0078125 0  0.6484375 0.0078125 0  0.65625 0.0078125 0  0.6640625 0.0078125 0  0.671875 0.0078125 0  0.6796875 0.0078125 0  0.6875 0.0078125 0  0.6953125 0.0078125 0  0.703125 0.0078125 0  0.7109375 0.0078125 0  0.71875 0.0078125 0  0.7265625 0.0078125 0  0.734375 0.0078125 0  0.7421875 0.0078125 0  0.75 0.0078125 0  0.7578125 0.0078125 0  0.765625 0.0078125 0  0.7734375 0.0078125 0  0.78125 0.0078125 0  0.7890625 0.0078125 0  0.796875 0.0078125 0  0.8046875 0.0078125 0  0.8125 0.0078125 0  0.8203125 0.0078125 0  0.828125 0.0078125 0  0.8359375 0.0078125 0  0.84375 0.0078125 0  0.8515625 0.0078125 0  0.859375 0.0078125 0  0.8671875 0.0078125 0  0.875 0.0078125 0  0.8828125 0.0078125 0  0.890625 0.0078125 0  0.8984375 0.0078125 0  0.90625 0.0078125 0  0.9140625 0.0078125 0  0.921875 0.0078125 0  0.9296875 0.0078125 0  0.9375 0.0078125 0  0.9453125 0.0078125 0  0.953125 0.0078125 0  0.9609375 0.0078125 0  0.96875 0.0078125 0  0.9765625 0.0078125 0  0.984375 0.0078125 0  0.9921875 0.0078125 0  1 0.0078125 0  0 0.015625 0  0.0078125 0.015625 0  0.015625 0.015625 0  0.0234375 0.015625 0  0.03125 0.015625 0  0.0390625 0.015625 0  0.046875 0.015625 0  0.0546875 0.015625 0  0.0625 0.015625 0  0.0703125 0.015625 0  0.078125 0.015625 0  0.0859375 0.015625 0  0.09375 0.015625 0  0.1015625 0.015625 0  0.109375 0.015625 0  0.1171875 0.015625 0  0.125 0.015625 0  0.1328125 0.015625 0  0.140625 0.015625 0  0.1484375 0.015625 0  0.15625 0.015625 0  0.1640625 0.015625 0  0.171875 0.015625 0  0.1796875 0.015625 0  0.1875 0.015625 0  0.1953125 0.015625 0  0.203125 0.015625 0  0.2109375 0.015625 0  0.21875 0.015625 0  0.2265625 0.015625 0  0.234375 0.015625 0  0.2421875 0.015625 0  0.25 0.015625 0  0.2578125 0.015625 0  0.265625 0.015625 0  0.2734375 0.015625 0  0.28125 0.015625 0  0.2890625 0.015625 0  0.296875 0.015625 0  0.3046875 0.015625 0  0.3125 0.015625 0  0.3203125 0.015625 0  0.328125 0.015625 0  0.3359375 0.015625 0  0.34375 0.015625 0  0.3515625 0.015625 0  0.359375 0.015625 0  0.3671875 0.015625 0  0.375 0.015625 0  0.3828125 0.015625 0  0.390625 0.015625 0  0.3984375 0.015625 0  0.40625 0.015625 0  0.4140625 0.015625 0  0.421875 0.015625 0  0.4296875 0.015625 0  0.4375 0.015625 0  0.4453125 0.015625 0  0.453125 0.015625 0  0.4609375 0.015625 0  0.46875 0.015625 0  0.4765625 0.015625 0  0.484375 0.015625 0  0.4921875 0.015625 0  0.5 0.015625 0  0.5078125 0.015625 0  0.515625 0.015625 0  0.5234375 0.015625 0  0.53125 0.015625 0  0.5390625 0.015625 0  0.546875 0.015625 0  0.5546875 0.015625 0  0.5625 0.015625 0  0.5703125 0.015625 0  0.578125 0.015625 0  0.5859375 0.015625 0  0.59375 0.015625 0  0.6015625 0.015625 0  0.609375 0.015625 0  0.6171875 0.015625 0  0.625 0.015625 0  0.6328125 0.015625 0  0.640625 0.015625 0  0.6484375 0.015625 0  0.65625 0.015625 0  0.6640625 0.015625 0  0.671875 0.015625 0  0.6796875 0.015625 0  0.6875 0.015625 0  0.6953125 0.015625 0  0.703125 0.015625 0  0.7109375 0.015625 0  0.71875 0.015625 0  0.7265625 0.015625 0  0.734375 0.015625 0  0.7421875 0.015625 0  0.75 0.015625 0  0.7578125 0.015625 0  0.765625 0.015625 0  0.7734375 0.015625 0  0.78125 0.015625 0  0.7890625 0.015625 0  0.796875 0.015625 0  0.8046875 0.015625 0  0.8125 0.015625 0  0.8203125 0.015625 0  0.828125 0.015625 0  0.8359375 0.015625 0  0.84375 0.015625 0  0.8515625 0.015625 0  0.859375 0.015625 0  0.8671875 0.015625 0  0.875 0.015625 0  0.8828125 0.015625 0  0.890625 0.015625 0  0.8984375 0.015625 0  0.90625 0.015625 0  0.9140625 0.015625 0  0.921875 0.015625 0  0.9296875 0.015625 0  0.9375 0.015625 0  0.9453125 0.015625 0  0.953125 0.015625 0  0.9609375 0.015625 0  0.96875 0.015625 0  0.9765625 0.015625 0  0.984375 0.015625 0  0.9921875 0.015625 0  1 0.015625 0  0 0.0234375 0  0.0078125 0.0234375 0  0.015625 0.0234375 0  0.0234375 0.0234375 0  0.03125 0.0234375 0  0.0390625 0.0234375 0  0.046875 0.0234375 0  0.0546875 0.0234375 0  0.0625 0.0234375 0  0.0703125 0.0234375 0  0.078125 0.0234375 0  0.0859375 0.0234375 0  0.09375 0.0234375 0  0.1015625 0.0234375 0  0.109375 0.0234375 0  0.1171875 0.0234375 0  0.125 0.0234375 0  0.1328125 0.0234375 0  0.140625 0.0234375 0  0.1484375 0.0234375 0  0.15625 0.0234375 0  0.1640625 0.0234375 0  0.171875 0.0234375 0  0.1796875 0.0234375 0  0.1875 0.0234375 0  0.1953125 0.0234375 0  0.203125 0.0234375 0  0.2109375 0.0234375 0  0.21875 0.0234375 0  0.2265625 0.0234375 0  0.234375 0.0234375 0  0.2421875 0.0234375 0  0.25 0.0234375 0  0.2578125 0.0234375 0  0.265625 0.0234375 0  0.2734375 0.0234375 0  0.28125 0.0234375 0  0.2890625 0.0234375 0  0.296875 0.0234375 0  0.3046875 0.0234375 0  0.3125 0.0234375 0  0.3203125 0.0234375 0  0.328125 0.0234375 0  0.3359375 0.0234375 0  0.34375 0.0234375 0  0.3515625 0.0234375 0  0.359375 0.0234375 0  0.3671875 0.0234375 0  0.375 0.0234375 0  0.3828125 0.0234375 0  0.390625 0.0234375 0  0.3984375 0.0234375 0  0.40625 0.0234375 0  0.4140625 0.0234375 0  0.421875 0.0234375 0  0.4296875 0.0234375 0  0.4375 0.0234375 0  0.4453125 0.0234375 0  0.453125 0.0234375 0  0.4609375 0.0234375 0  0.46875 0.0234375 0  0.4765625 0.0234375 0  0.484375 0.0234375 0  0.4921875 0.0234375 0  0.5 0.0234375 0  0.5078125 0.0234375 0  0.515625 0.0234375 0  0.5234375 0.0234375 0  0.53125 0.0234375 0  0.5390625 0.0234375 0  0.546875 0.0234375 0  0.5546875 0.0234375 0  0.5625 0.0234375 0  0.5703125 0.0234375 0  0.578125 0.0234375 0  0.5859375 0.0234375 0  0.59375 0.0234375 0  0.6015625 0.0234375 0  0.609375 0.0234375 0  0.6171875 0.0234375 0  0.625 0.0234375 0  0.6328125 0.0234375 0  0.640625 0.0234375 0  0.6484375 0.0234375 0  0.65625 0.0234375 0  0.6640625 0.0234375 0  0.671875 0.0234375 0  0.6796875 0.0234375 0  0.6875 0.0234375 0  0.6953125 0.0234375 0  0.703125 0.0234375 0  0.7109375 0.0234375 0  0.71875 0.0234375 0  0.7265625 0.0234375 0  0.734375 0.0234375 0  0.7421875 0.0234375 0  0.75 0.0234375 0  0.7578125 0.0234375 0  0.765625 0.0234375 0  0.7734375 0.0234375 0  0.78125 0.0234375 0  0.7890625 0.0234375 0  0.796875 0.0234375 0  0.8046875 0.0234375 0  0.8125 0.0234375 0  0.8203125 0.0234375 0  0.828125 0.0234375 0  0.8359375 0.0234375 0  0.84375 0.0234375 0  0.8515625 0.0234375 0  0.859375 0.0234375 0  0.8671
[...]
<PointData  Scalars="u_sol"> 
<DataArray  type="Float64"  Name="u_sol"  format="ascii">2.0008546224580840e-06  -1.1787190575270709e-05  -2.1952115643745166e-05  -2.0834302818811609e-05  -1.2711431507334980e-05  1.4682548220237731e-07  1.5655502864219532e-05  3.2172469469252437e-05  4.8309128411978778e-05  6.2981768393254690e-05  7.5449767234878482e-05  8.5338363778627246e-05  9.2624481993137811e-05  9.7587736912049339e-05  1.0073871946261249e-04  1.0273763493489931e-04  1.0431532661496779e-04  1.0620385412141999e-04  1.0908008288008415e-04  1.1352230428558024e-04  1.1998033302754489e-04  1.2875882471851909e-04  1.4001572554960334e-04  1.5377740134493297e-04  1.6996972789803672e-04  1.8846141438266919e-04  2.0911172469828312e-04  2.3181227610547255e-04  2.5651374913256614e-04  2.8323191353690449e-04  3.1203243529110618e-04  3.4299988647060355e-04  3.7620150774058737e-04  4.1165441913565323e-04  4.4929626915375491e-04  4.8896175506197301e-04  5.3036122835016216e-04  5.7308342408849149e-04  6.1658440520059876e-04  6.6020074189941690e-04  7.0310076334039167e-04  7.4429675035341404e-04  7.8263954854748815e-04  8.1680188780350143e-04  8.4537370120310021e-04  8.6684583148351213e-04  8.7963132614040924e-04  8.8212284291189962e-04  8.7275920042989542e-04  8.5007108140095356e-04  8.1272185519169814e-04  7.5958335859021881e-04  6.8980988078818305e-04  6.0289018806584298e-04  4.9869786924518135e-04  3.7753500169318099e-04  2.4016595453055687e-04  8.7840692218667043e-05  -7.7693098166823198e-05  -2.5418945617876776e-04  -4.3891487157910852e-04  -6.2867154335484888e-04  -8.1983137739508353e-04  -1.0083854357238382e-03  -1.1900110767359485e-03  -1.3600950435179592e-03  -1.5139334482333546e-03  -1.6470041218182700e-03  -1.7544719514338263e-03  -1.8318928361411558e-03  -1.8752343339536294e-03  -1.8810586458216634e-03  -1.8467135527709731e-03  -1.7705259414319606e-03  -1.6519803094027273e-03  -1.4918717291714457e-03  -1.2924157162777783e-03  -1.0573022079866166e-03  -7.9167425866124251e-04  -5.0203729712061424e-04  -1.9608808502154473e-04  1.1766989999050240e-04  4.3026955031835794e-04  7.3246097969846048e-04  1.0150517057339083e-03  1.2699157006454526e-03  1.4907786613680410e-03  1.6724679440577336e-03  1.8106188006922147e-03  1.9030299876227836e-03  1.9499054861071632e-03  1.9539836638643557e-03  1.9186425768283047e-03  1.8483840414072787e-03  1.7489764177454575e-03  1.6267181238776782e-03  1.4881567870762616e-03  1.3395147861639358e-03  1.1863874986110423e-03  1.0341536296503511e-03  8.8701063392663767e-04  7.4839795327272826e-04  6.2080500402505697e-04  5.0581634664246763e-04  4.0425031720380721e-04  3.1623410948376335e-04  2.4135665889200533e-04  1.7880042564129894e-04  1.2748004500036131e-04  8.6153104264550552e-05  5.3503482144438163e-05  2.8236598337374437e-05  9.1362330590846555e-06  -4.8993617587485870e-06  -1.4860680352176410e-05  -2.1621617201419796e-05  -2.5939487314246559e-05  -2.8474586250146355e-05  -2.9799604733799407e-05  -3.0401250365578034e-05  -3.0664876850588439e-05  -3.0836071266486027e-05  -3.0955639327811467e-05  -3.0763617480368577e-05  -2.9593413586734091e-05  -2.6220083732067595e-05  -1.9152725849277448e-05  -6.8921379933212700e-06  1.6684235828403566e-06  -1.0837504188197168e-06  -3.2003142478845820e-07  9.5700210603768767e-05  3.3136130606935065e-04  6.9322457276940253e-04  1.1540847593340489e-03  1.6802274216528950e-03  2.2372902904105362e-03  2.7930753570379065e-03  3.3198844032854510e-03  3.7961318356702595e-03  4.2072790068085402e-03  4.5460310951255800e-03  4.8118583591602480e-03  5.0099665904088106e-03  5.1498871583209333e-03  5.2438639238472189e-03  5.3051992296236812e-03  5.3466940097914419e-03  5.3792915171818039e-03  5.4110111564552458e-03  5.4462420057275552e-03  5.4854401415437301e-03  5.5252372464892896e-03  5.5589171443821677e-03  5.5771580757472961e-03  5.5688910284156729e-03  5.5221060064726164e-03  5.4244598837502678e-03  5.2636012201723696e-03  5.0272111944458936e-03  4.7028350071186510e-03  4.2776205906074763e-03  3.7380881229995533e-03  3.0700302159533564e-03  2.2585832730478064e-03  1.2884640617089034e-03  1.4430108297672182e-04  -1.1889222578738785e-03  -2.7253824912538550e-03  -4.4778083065125695e-03  -6.4569150870818770e-03  -8.6708185107296568e-03  -1.1124441054484983e-02  -1.3819016945318497e-02  -1.6751567698770255e-02  -1.9914486116295885e-02  -2.3295250988685637e-02  -2.6876264461713009e-02  -3.0634821166213813e-02  -3.4543251250654355e-02  -3.8569172503484690e-02  -4.2675867644825630e-02  -4.6822774674811857e-02  -5.0966055690007742e-02  -5.5059221567102128e-02  -5.9053787681779331e-02  -6.2899940196809445e-02  -6.6547197138260641e-02  -6.9945054000712562e-02  -7.3043610519249708e-02  -7.5794180171199002e-02  -7.8149890231903704e-02  -8.0066281854707155e-02  -8.1501913241026527e-02  -8.2419049919605247e-02  -8.2784258278484221e-02  -8.2568792055542933e-02  -8.1750042048288826e-02  -8.0311982198925630e-02  -7.8245992592964567e-02  -7.5551669850542458e-02  -7.2237605729086662e-02  -6.8322078227289418e-02  -6.3833620041047270e-02  -5.8811399410966803e-02  -5.3305359926076420e-02  -4.7376058785501204e-02  -4.1094157723742746e-02  -3.4539519106544452e-02  -2.7799899097871106e-02  -2.0969236396393250e-02  -1.4145472851564892e-02  -7.4281998596367974e-03  -9.1602430240889229e-04  5.2957752150334242e-03  1.1117801445382033e-02  1.6470460321225865e-02  2.1286713099927690e-02  2.5512461919883937e-02  2.9107570392323735e-02  3.2046736207880726e-02  3.4321794316641875e-02  3.5940483331537626e-02  3.6924801193390672e-02  3.7310047340244082e-02  3.7143089564293054e-02  3.6480514924981416e-02  3.5386041737648033e-02  3.3927434700973327e-02  3.2175083405556727e-02  3.0198897128653659e-02  2.8066322800846661e-02  2.5840411547186477e-02  2.3578158293258347e-02  2.1329385587598795e-02  1.9135987385020453e-02  1.7031650144763159e-02  1.5041967936201521e-02  1.3184913205016449e-02  1.1471580050647310e-02  9.9070778314013543e-03  8.4915109860928505e-03  7.2209659982622292e-03  6.0884791163576413e-03  5.0848864855952492e-03  4.1995749809198716e-03  3.4212009090423246e-03  2.7383961952990540e-03  2.1405345815593939e-03  1.6185956285665625e-03  1.1661158807168850e-03  7.8012507665127051e-04  4.6184340138981974e-04  2.1661980644521156e-04  5.2479466485259773e-05  -2.5445372978363378e-05  -2.4011841833587507e-05  3.8725686998844651e-06  -1.2494767778393001e-05  6.2261944373043611e-05  3.1976192255064314e-04  7.8155017017555897e-04  1.4311420153765759e-03  2.2300607708417219e-03  3.1286222029500584e-03  4.0739963570937156e-03  5.0156772233436878e-03  5.9094681275552200e-03  6.7202330334400926e-03  7.4234722815507180e-03  8.0057614943662130e-03  8.4641533180404589e-03  8.8047189312098224e-03  9.0404571657171848e-03  9.1888208408293457e-03  9.2691043749829252e-03  9.2999165350137712e-03  9.2969333914097469e-03  9.2710993991975844e-03  9.2274063210975379e-03  9.1643313820410442e-03  9.0739466788959285e-03  8.9426227037303022e-03  8.7521589676453470e-03  8.4811051081023093e-03  8.1060153828589783e-03  7.6024240723246862e-03  6.9454266263261682e-03  6.1098724270985732e-03  5.0702894075621702e-03  3.8007325165424930e-03  2.2747360860048125e-03  4.6547273360675757e-04  -1.6538245992897280e-03  -4.1091711501689372e-03  -6.9248692056911396e-03  -1.0122453550088756e-02  -1.3719556223232414e-02  -1.7728811119125151e-02  -2.2156718121550709e-02  -2.7002599649210878e-02  -3.2257722633917414e-02  -3.7904668564203541e-02  -4.3916945549603008e-02  -5.0258903963658348e-02  -5.6885986741741244e-02  -6.3745307832967280e-02  -7.0776520445513372e-02  -7.7912868361059054e-02  -8.5082506028199001e-02  -9.2209916171509587e-02  -9.9217337752286472e-02  -1.0602617743649341e-01  -1.1255833618076427e-01  -1.1873741086283132e-01  -1.2448974525095170e-01  -1.2974532099203681e-01  -1.3443849347466796e-01  -1.3850858802973376e-01  -1.4190037979888931e-01  -1.4456448656205137e-01  -1.4645769699255010e-01  -1.4754328495807728e-01  -1.4779123657641258e-01  -1.4717845793568268e-01  -1.4568970843469864e-01  -1.4331754027383659e-01  -1.4006251483030754e-01  -1.3593381039720545e-01  -1.3094962412853825e-01  -1.2513759326549262e-01  -1.1853517386535618e-01  -1.1118994032975747e-01  -1.0315976969010503e-01  -9.4512861722907640e-02  -8.5327551930478113e-02  -7.5691871627382057e-02  -6.5702818536260310e-02  -5.5465283046096443e-02  -4.5090758646866139e-02  -3.4695791631172264e-02  -2.4399645464566192e-02  -1.4322001815833285e-02  -4.5805253961801627e-03  4.7116318928379849e-03  1.3447467682587179e-02  2.1528742222036244e-02  2.8869608941457223e-02  3.5399264717653832e-02  4.1063158157282800e-02  4.5822114697816413e-02  4.9654278776257749e-02  5.2556780510520852e-02  5.4545298213251915e-02  5.5653048386922498e-02  5.5929347917031337e-02  5.5438681223290293e-02  5.4258780353076880e-02  5.2476625862300258e-02  5.0186780279011703e-02  4.7487654178173314e-02  4.4478137960205937e-02  4.1254472818163336e-02  3.7907125170369191e-02  3.4518273038534400e-02  3.1159828635668175e-02  2.7892164905952165e-02  2.4763558428079837e-02  2.1810302107187922e-02  1.9057373513741777e-02  1.6519550592576360e-02  1.4202805938161490e-02  1.2105784147989183e-02  1.0221339814749838e-02  8.5380728597315922e-03  7.0417801608281764e-03  5.7169195086138359e-03  4.5481126469193193e-03  3.5217092937694342e-03  2.6273572661748372e-03  1.8593841031030191e-03  1.2176291344192310e-03  7.0701012231137912e-04  3.3508892485888602e-04  1.0531863808153659e-04  8.4208781235918571e-06  -2.1468548474284411e-06  -2.3790081271996092e-05  1.1974864981611149e-04  5.3564406560060009e-04  1.2063164787109743e-03  2.1000663359534342e-03  3.1672723434935397e-03  4.3474790822193420e-03  5.5764968741937784e-03  6.7927149739280893e-03  7.9419190936705596e-03  8.9806468933688668e-03  9.8780831947444941e-03  1.0616578062162497e-02  1.1190934780877685e-02  1.1606679012067758e-02  1.1877564140446117e-02  1.2022588590001181e-02  1.2062803908872245e-02  1.2018182209491099e-02  1.1904796758206814e-02  1.1732541576552980e-02  1.1503573809312986e-02  1.1211595997593807e-02  1.0841995303725155e-02  1.0372736739013649e-02  9.7757865592781306e-03  9.0187633823235192e-03  8.0665042217089537e-03  6.8822991915211355e-03  5.4286891221541856e-03  3.6678886303332645e-03  1.5620079674933259e-03  -9.2672595258980759e-04  -3.8355315652673365e-03  -7.2002488539443417e-03  -1.1054143939544635e-02  -1.5426450012568453e-02  -2.0340757617135621e-02  -2.5813261617143649e-02  -3.1851049924212671e-02  -3.8450591164420199e-02  -4.5596500753964847e-02  -5.3260697383114515e-02  -6.1402047558779406e-02  -6.9966465690130070e-02  -7.8887710190803734e-02  -8.8088698037148361e-02  -9.7483263142787144e-02  -1.0697828371989997e-01  -1.1647602994116818e-01  -1.2587662733023378e-01  -1.3508038265592612e-01  -1.4398993019385700e-01  -1.5251209635437057e-01  -1.6055939747048478e-01  -1.6805115900183112e-01  -1.7491426059674894e-01  -1.8108354121571535e-01  -1.8650191452469775e-01  -1.9112025516753495e-01  -1.9489712002472120e-01  -1.9779836679226523e-01  -1.9979672374910382e-01  -2.0087136989831156e-01  -2.0100753337807628e-01  -2.0019620070615468e-01  -1.9843426474495504e-01  -1.9572402234709094e-01  -1.9207280496679902e-01  -1.8749375255853223e-01  -1.8200583429577702e-01  -1.7563428754097826e-01  -1.6841104410211763e-01  -1.6037523910188989e-01  -1.5157371408672682e-01  -1.4206148641706640e-01  -1.3190212344166197e-01  -1.2116796718541996e-01  -1.0994015065325785e-01  -9.8308352980935113e-02  -8.6370279687479595e-02  -7.4230731445477982e-02  -6.2000289864322426e-02  -4.9794065183839317e-02  -3.7729834425930919e-02  -2.5925578957155429e-02  -1.4497094040806102e-02  -3.5561821853294616e-03  6.7909229278824484e-03  1.6446055191871332e-02  2.5320643408998381e-02  3.3337999070934959e-02  4.0435547619459500e-02  4.6565626688430430e-02  5.1695575927054489e-02  5.5808387410082975e-02  5.8903965134246429e-02  6.0999963387013606e-02  6.2131028293196493e-02  6.2348907251219735e-02  6.1722234363131817e-02  6.0333114001548810e-02  5.8275998500974716e-02  5.5654624766115379e-02  5.2578169190933693e-02  4.9157560516912696e-02  4.5501379072211239e-02  4.1712090444201294e-02  3.7882787137703905e-02  3.4094674831175668e-02  3.0415444567110345e-02  2.6898616556417180e-02  2.3583720266385097e-02  2.0497173580990732e-02  1.7653707229105364e-02  1.5058119236319063e-02  1.2707185294299093e-02  1.0591723462645598e-02  8.6986866721334329e-03  7.0133046347955657e-03  5.5212450959065840e-03  4.2106977716222394e-03  3.0741625277973610e-03  2.1095644289253219e-03  1.3201388851489190e-03  7.1251232639137942e-04  2.9217618831653327e-04  5.7584475159051980e-05  -1.1666897963209671e-05  -3.2994179976134347e-05  1.6626969233686978e-04  7.1825231849733490e-04  1.5707096992792257e-03  2.6711551315761061e-03  3.9555752663250664e-03  5.3525572572750806e-03  6.7886592955735195e-03  8.1944364367630487e-03  9.5093197902661082e-03  1.0685035000780082e-02  1.1687416282908454e-02  1.2496710061463858e-02  1.3106559040948982e-02  1.3521920726303184e-02  1.3756199931948177e-02  1.3827882144174913e-02  1.3756953997427889e-02  1.3561396703587943e-02  1.3254035416307005e-02  1.2840009337480781e-02  1.2315091133846635e-02  1.1664997512724359e-02  1.0865704521842386e-02  9.8846261278861484e-03  8.6823759367341477e-03  7.2147420775844316e-03  5.4345216037066562e-03  3.2929955517321551e-03  7.4099526229699970e-04  -2.2703324826147940e-03  -5.7887914487315777e-03  -9.8601267099570622e-03  -1.4526630141056429e-02  -1.9825364602845862e-02  -2.5786030301881362e-02  -3.2428620949178519e-02  -3.9761136414909269e-02  -4.7777532552142413e-02  -5.6456091646056243e-02  -6.5758304588815805e-02  -7.5628601777137136e-02  -8.5994927145473424e-02  -9.6770163630418016e-02  -1.0785446211531469e-01  -1.1913813795846701e-01  -1.3050507020699947e-01  -1.4183632570231866e-01  -1.5301371524037169e-01  -1.6392305226030918e-01  -1.7445689218279675e-01  -1.8451668051422396e-01  -1.9401420924052559e-01  -2.0287239708865321e-01  -2.1102546485097104e-01  -2.1841859951905065e-01  -2.2500722762552991e-01  -2.3075602055721406e-01  -2.3563774867000101e-01  -2.3963208588276771e-01  -2.4272444808834637e-01  -2.4490492915038087e-01  -2.4616738299660315e-01  -2.4650867723212769e-01  -2.4592815843878649e-01  -2.4442742643765136e-01  -2.4200986948447331e-01  -2.3868041210839880e-01  -2.3444667908902295e-01  -2.2931882656628014e-01  -2.2331031107219618e-01  -2.1643854157534895e-01  -2.0872573861294863e-01  -2.0019981786192501e-01  -1.9089532706846729e-01  -1.8085434595850802e-01  -1.7012730522733846e-01  -1.5877364605948902e-01  -1.4686225160494074e-01  -1.3447157822871855e-01  -1.2168940611764666e-01  -1.0861222177963145e-01  -9.5344193631605956e-02  -8.1995499710076025e-02  -6.8680490558413632e-02  -5.5515993902541305e-02  -4.2619259757006984e-02  -3.0104322326632075e-02  -1.8079288842112341e-02  -6.6461334676022003e-03  4.1009410529147684e-03  1.4076695190252623e-02  2.3207457754043835e-02  3.1430901059089661e-02  3.8696229343918281e-02  4.4965555806483058e-02  5.0214155324530031e-02  5.4430435755028247e-02  5.7617004292284266e-02  5.9790992132132778e-02  6.0985900538773535e-02  6.1252982462621446e-02  6.0659047063653430e-02  5.9286089428494781e-02  5.7229786003246484e-02  5.4596104929239116e-02  5.1497669571059640e-02  4.8049352159917014e-02  4.4363704419249389e-02  4.0546660454094614e-02  3.6693904736352492e-02  3.2888137922797246e-02  2.9197429920517468e-02  2.5674663619541287e-02  2.2357977373066096e-02  1.9271966184159581e-02  1.6429466584132135e-02  1.3833691783659525e-02  1.1480658364628268e-02  9.3617526881420512e-03  7.4663613465724681e-03  5.7844378911333138e-03  4.3088031207280872e-03  3.0368828057985163e-03  1.9715513909366756e-03  1.1207662704066715e-03  4.9614987803681262e-04  1.1047410792370788e-04  -2.2037884283864760e-05  -4.0294709815424053e-05  2.0266098797842904e-04  8.6720036027924507e-04  1.8738810717443858e-03  3.1482103274782071e-03  4.6092276616280349e-03  6.1727873990417362e-03  7.7559090072678140e-03  9.2823049256957439e-03  1.0686922642329460e-02  1.1918996819042620e-02  1.2943379648827212e-02  1.3740270491318216e-02  1.4303602067769825e-02  1.4638399745666429e-02  1.4757429948764162e-02  1.4677435502889373e-02  1.4415241498058940e-02  1.3984019665302784e-02  1.3390002219368650e-02  1.2629944639897360e-02  1.1689587452193079e-02  1.0543263543916713e-02  9.1546411169524822e-03  7.4783982417303673e-03  5.4624533576917563e-03  3.0503348971660212e-03  1.8334015812218973e-04  -3.1977118421304932e-03  -7.1510398847627965e-03  -1.1732470722417223e-02  -1.6993772329905781e-02  -2.2980575388115935e-02  -2.9729780544944722e-02  -3.7266631131529997e-02  -4.5601753742758704e-02  -5.4728446933562443e-02  -6.4620463223929323e-02  -7.5230702910543970e-02  -8.6490963565573301e-02  -9.8312970261543994e-02  -1.1059057173875295e-01  -1.2320310375733208e-01  -1.3601969613295081e-01  -1.4890408933695806e-01  -1.6171965934480503e-01  -1.7433415498992713e-01  -1.8662380400962603e-01  -1.9847652653942435e-01  -2.0979410210225072e-01  -2.2049328078727565e-01  -2.3050589717652231e-01  -2.3977816445634670e-01  -2.4826934858735722e-01  -2.5595003511471831e-01  -2.6280019218335493e-01  -2.6880720086276327e-01  -2.7396398543321637e-01  -2.7826733566745643e-01  -2.8171647689442142e-01  -2.8431191305737008e-01  -2.8605454609282971e-01  -2.8694506002698322e-01  -2.8698354691617378e-01  -2.8616937514236956e-01  -2.8450107810188058e-01  -2.8197652349992447e-01  -2.7859397816620635e-01  -2.7435198348255646e-01  -2.6925029464232947e-01  -2.6329061664641762e-01  -2.5647756850778042e-01  -2.4881970768974676e-01  -2.4033067673216696e-01  -2.3103039218048430e-01  -2.2094626116578148e-01  -2.1011435117719207e-01  -1.9858044842172481e-01  -1.8640091358916544e-01  -1.7364324049864735e-01  -1.6038623058444998e-01  -1.4671966898205446e-01  -1.3274344049370651e-01  -1.1856618359929703e-01  -1.0430332054415548e-01  -9.0074350632891445e-02  -7.5999846662923365e-02  -6.2199623950890827e-02  -4.8790086841911724e-02  -3.5880159334485885e-02  -2.3568829045941521e-02  -1.1943888971170486e-02  -1.0838281331993591e-03  8.9438759747948460e-03  1.8083629600702908e-02  2.6290241396538246e-02  3.3527922977480480e-02  3.9770500865407871e-02  4.5002067029305197e-02  4.9217522857929900e-02  5.2421653777570555e-02  5.4632028043393940e-02  5.5882315196755829e-02  5.6221979835889613e-02  5.5716474145040426e-02  5.4447330618207931e-02  5.2509963270562267e-02  5.0010547812613527e-02  4.7061862837063519e-02  4.3778484652932194e-02  4.0271850623184009e-02  3.6645764768318378e-02  3.2992759467977244e-02  2.9391578765870410e-02  2.5905832305295314e-02  2.2583846736301139e-02  1.9459545863316250e-02  1.6554098111653513e-02  1.3878112208531607e-02  1.1434263127266328e-02  9.2201558301492834e-03  7.2312818293704664e-03  5.4638924423171939e-03  3.9175829253540019e-03  2.5974565608592546e-03  1.5157059460606664e-03  6.9340801944318812e-04  1.6118739736963701e-04  -3.2014581060726433e-05  -4.6260011559679220e-05  2.3236993054572547e-04  9.9120550060684612e-04  2.1286992944127441e-03  3.5488134958175390e-03  5.1520463479867188e-03  6.8397273669914211e-03  8.5183532571044430e-03  1.0104886314406081e-02  1.1530838552330664e-02  1.2744650825737079e-02  1.3712163381540824e-02  1.4415395763855157e-02  1.4850004484505576e-02  1.5021826423840321e-02  1.4942876735291048e-02  1.4627114312742115e-02  1.4086259067463391e-02  1.3325937844874573e-02  1.2342471742050932e-02  1.1120610755776601e-02  9.6324723647813002e-03  7.8378154395459185e-03  5.6855514695016681e-03  3.1161766201901939e-03  6.4674292942523847e-05  -3.5366204055311480e-03  -7.7554870363603281e-03  -1.2657578562229247e-02  -1.8304277429243780e-02  -2.4750341468072680e-02  -3.2041024674758098e-02  -4.0208681056231266e-02  -4.9269108164418339e-02  -5.9217985018165657e-02  -7.0027935602711353e-02  -8.1646704601820011e-02  -9.3996807478925470e-02  -1.0697675936068228e-01  -1.2046402446988067e-01  -1.3431948584566286e-01  -1.4