<?xml version="1.0"?>
<VTKFile type="UnstructuredGrid"  version="0.1"  >
<UnstructuredGrid>
<Piece  NumberOfPoints="16641" NumberOfCells="16384">
<Points>
<DataArray  type="Float64"  NumberOfComponents="3"  format="ascii">0 0 0  0.0078125 0 0  0.015625 0 0  0.0234375 0 0  0.03125 0 0  0.0390625 0 0  0.046875 0 0  0.0546875 0 0  0.0625 0 0  0.0703125 0 0  0.078125 0 0  0.0859375 0 0  0.09375 0 0  0.1015625 0 0  0.109375 0 0  0.1171875 0 0  0.125 0 0  0.1328125 0 0  0.140625 0 0  0.1484375 0 0  0.15625 0 0  0.1640625 0 0  0.171875 0 0  0.1796875 0 0  0.1875 0 0  0.1953125 0 0  0.203125 0 0  0.2109375 0 0  0.21875 0 0  0.2265625 0 0  0.234375 0 0  0.2421875 0 0  0.25 0 0  0.2578125 0 0  0.265625 0 0  0.2734375 0 0  0.28125 0 0  0.2890625 0 0  0.296875 0 0  0.3046875 0 0  0.3125 0 0  0.3203125 0 0  0.328125 0 0  0.3359375 0 0  0.34375 0 0  0.3515625 0 0  0.359375 0 0  0.3671875 0 0  0.375 0 0  0.3828125 0 0  0.390625 0 0  0.3984375 0 0  0.40625 0 0  0.4140625 0 0  0.421875 0 0  0.4296875 0 0  0.4375 0 0  0.4453125 0 0  0.453125 0 0  0.4609375 0 0  0.46875 0 0  0.4765625 0 0  0.484375 0 0  0.4921875 0 0  0.5 0 0  0.5078125 0 0  0.515625 0 0  0.5234375 0 0  0.53125 0 0  0.5390625 0 0  0.546875 0 0  0.5546875 0 0  0.5625 0 0  0.5703125 0 0  0.578125 0 0  0.5859375 0 0  0.59375 0 0  0.6015625 0 0  0.609375 0 0  0.6171875 0 0  0.625 0 0  0.6328125 0 0  0.640625 0 0  0.6484375 0 0  0.65625 0 0  0.6640625 0 0  0.671875 0 0  0.6796875 0 0  0.6875 0 0  0.6953125 0 0  0.703125 0 0  0.7109375 0 0  0.71875 0 0  0.7265625 0 0  0.734375 0 0  0.7421875 0 0  0.75 0 0  0.7578125 0 0  0.765625 0 0  0.7734375 0 0  0.78125 0 0  0.7890625 0 0  0.796875 0 0  0.8046875 0 0  0.8125 0 0  0.8203125 0 0  0.828125 0 0  0.8359375 0 0  0.84375 0 0  0.8515625 0 0  0.859375 0 0  0.8671875 0 0  0.875 0 0  0.8828125 0 0  0.890625 0 0  0.8984375 0 0  0.90625 0 0  0.9140625 0 0  0.921875 0 0  0.9296875 0 0  0.9375 0 0  0.9453125 0 0  0.953125 0 0  0.9609375 0 0  0.96875 0 0  0.9765625 0 0  0.984375 0 0  0.9921875 0 0  1 0 0  0 0.0078125 0  0.0078125 0.0078125 0  0.015625 0.0078125 0  0.0234375 0.0078125 0  0.03125 0.0078125 0  0.0390625 0.0078125 0  0.046875 0.0078125 0  0.0546875 0.0078125 0  0.0625 0.0078125 0  0.0703125 0.0078125 0  0.078125 0.0078125 0  0.0859375 0.0078125 0  0.09375 0.0078125 0  0.1015625 0.0078125 0  0.109375 0.0078125 0  0.1171875 0.0078125 0  0.125 0.0078125 0  0.1328125 0.0078125 0  0.140625 0.0078125 0  0.1484375 0.0078125 0  0.15625 0.0078125 0  0.1640625 0.0078125 0  0.171875 0.0078125 0  0.1796875 0.0078125 0  0.1875 0.0078125 0  0.1953125 0.0078125 0  0.203125 0.0078125 0  0.2109375 0.0078125 0  0.21875 0.0078125 0  0.2265625 0.0078125 0  0.234375 0.0078125 0  0.2421875 0.0078125 0  0.25 0.0078125 0  0.2578125 0.0078125 0  0.265625 0.0078125 0  0.2734375 0.0078125 0  0.28125 0.0078125 0  0.2890625 0.0078125 0  0.296875 0.0078125 0  0.3046875 0.0078125 0  0.3125 0.0078125 0  0.3203125 0.0078125 0  0.328125 0.0078125 0  0.3359375 0.0078125 0  0.34375 0.0078125 0  0.3515625 0.0078125 0  0.359375 0.0078125 0  0.3671875 0.0078125 0  0.375 0.0078125 0  0.3828125 0.0078125 0  0.390625 0.0078125 0  0.3984375 0.0078125 0  0.40625 0.0078125 0  0.4140625 0.0078125 0  0.421875 0.0078125 0  0.4296875 0.0078125 0  0.4375 0.0078125 0  0.4453125 0.0078125 0  0.453125 0.0078125 0  0.4609375 0.0078125 0  0.46875 0.0078125 0  0.4765625 0.0078125 0  0.484375 0.0078125 0  0.4921875 0.0078125 0  0.5 0.0078125 0  0.5078125 0.0078125 0  0.515625 0.0078125 0  0.5234375 0.0078125 0  0.53125 0.0078125 0  0.5390625 0.0078125 0  0.546875 0.0078125 0  0.5546875 0.0078125 0  0.5625 0.0078125 0  0.5703125 0.0078125 0  0.578125 0.0078125 0  0.5859375 0.0078125 0  0.59375 0.0078125 0  0.6015625 0.0078125 0  0.609375 0.0078125 0  0.6171875 0.0078125 0  0.625 0.0078125 0  0.6328125 0.0078125 0  0.640625 0.0078125 0  0.6484375 0.0078125 0  0.65625 0.0078125 0  0.6640625 0.0078125 0  0.671875 0.0078125 0  0.6796875 0.0078125 0  0.6875 0.0078125 0  0.6953125 0.0078125 0  0.703125 0.0078125 0  0.7109375 0.0078125 0  0.71875 0.0078125 0  0.7265625 0.0078125 0  0.734375 0.0078125 0  0.7421875 0.0078125 0  0.75 0.0078125 0  0.7578125 0.0078125 0  0.765625 0.0078125 0  0.7734375 0.0078125 0  0.78125 0.0078125 0  0.7890625 0.0078125 0  0.796875 0.0078125 0  0.8046875 0.0078125 0  0.8125 0.0078125 0  0.8203125 0.0078125 0  0.828125 0.0078125 0  0.8359375 0.0078125 0  0.84375 0.0078125 0  0.8515625 0.0078125 0  0.859375 0.0078125 0  0.8671875 0.0078125 0  0.875 0.0078125 0  0.8828125 0.0078125 0  0.890625 0.0078125 0  0.8984375 0.0078125 0  0.90625 0.0078125 0  0.9140625 0.0078125 0  0.921875 0.0078125 0  0.9296875 0.0078125 0  0.9375 0.0078125 0  0.9453125 0.0078125 0  0.953125 0.0078125 0  0.9609375 0.0078125 0  0.96875 0.0078125 0  0.9765625 0.0078125 0  0.984375 0.0078125 0  0.9921875 0.0078125 0  1 0.0078125 0  0 0.015625 0  0.0078125 0.015625 0  0.015625 0.015625 0  0.0234375 0.015625 0  0.03125 0.015625 0  0.0390625 0.015625 0  0.046875 0.015625 0  0.0546875 0.015625 0  0.0625 0.015625 0  0.0703125 0.015625 0  0.078125 0.015625 0  0.0859375 0.015625 0  0.09375 0.015625 0  0.1015625 0.015625 0  0.109375 0.015625 0  0.1171875 0.015625 0  0.125 0.015625 0  0.1328125 0.015625 0  0.140625 0.015625 0  0.1484375 0.015625 0  0.15625 0.015625 0  0.1640625 0.015625 0  0.171875 0.015625 0  0.1796875 0.015625 0  0.1875 0.015625 0  0.1953125 0.015625 0  0.203125 0.015625 0  0.2109375 0.015625 0  0.21875 0.015625 0  0.2265625 0.015625 0  0.234375 0.015625 0  0.2421875 0.015625 0  0.25 0.015625 0  0.2578125 0.015625 0  0.265625 0.015625 0  0.2734375 0.015625 0  0.28125 0.015625 0  0.2890625 0.015625 0  0.296875 0.015625 0  0.3046875 0.015625 0  0.3125 0.015625 0  0.3203125 0.015625 0  0.328125 0.015625 0  0.3359375 0.015625 0  0.34375 0.015625 0  0.3515625 0.015625 0  0.359375 0.015625 0  0.3671875 0.015625 0  0.375 0.015625 0  0.3828125 0.015625 0  0.390625 0.015625 0  0.3984375 0.015625 0  0.40625 0.015625 0  0.4140625 0.015625 0  0.421875 0.015625 0  0.4296875 0.015625 0  0.4375 0.015625 0  0.4453125 0.015625 0  0.453125 0.015625 0  0.4609375 0.015625 0  0.46875 0.015625 0  0.4765625 0.015625 0  0.484375 0.015625 0  0.4921875 0.015625 0  0.5 0.015625 0  0.5078125 0.015625 0  0.515625 0.015625 0  0.5234375 0.015625 0  0.53125 0.015625 0  0.5390625 0.015625 0  0.546875 0.015625 0  0.5546875 0.015625 0  0.5625 0.015625 0  0.5703125 0.015625 0  0.578125 0.015625 0  0.5859375 0.015625 0  0.59375 0.015625 0  0.6015625 0.015625 0  0.609375 0.015625 0  0.6171875 0.015625 0  0.625 0.015625 0  0.6328125 0.015625 0  0.640625 0.015625 0  0.6484375 0.015625 0  0.65625 0.015625 0  0.6640625 0.015625 0  0.671875 0.015625 0  0.6796875 0.015625 0  0.6875 0.015625 0  0.6953125 0.015625 0  0.703125 0.015625 0  0.7109375 0.015625 0  0.71875 0.015625 0  0.7265625 0.015625 0  0.734375 0.015625 0  0.7421875 0.015625 0  0.75 0.015625 0  0.7578125 0.015625 0  0.765625 0.015625 0  0.7734375 0.015625 0  0.78125 0.015625 0  0.7890625 0.015625 0  0.796875 0.015625 0  0.8046875 0.015625 0  0.8125 0.015625 0  0.8203125 0.015625 0  0.828125 0.015625 0  0.8359375 0.015625 0  0.84375 0.015625 0  0.8515625 0.015625 0  0.859375 0.015625 0  0.8671875 0.015625 0  0.875 0.015625 0  0.8828125 0.015625 0  0.890625 0.015625 0  0.8984375 0.015625 0  0.90625 0.015625 0  0.9140625 0.015625 0  0.921875 0.015625 0  0.9296875 0.015625 0  0.9375 0.015625 0  0.9453125 0.015625 0  0.953125 0.015625 0  0.9609375 0.015625 0  0.96875 0.015625 0  0.9765625 0.015625 0  0.984375 0.015625 0  0.9921875 0.015625 0  1 0.015625 0  0 0.0234375 0  0.0078125 0.0234375 0  0.015625 0.0234375 0  0.0234375 0.0234375 0  0.03125 0.0234375 0  0.0390625 0.0234375 0  0.046875 0.0234375 0  0.0546875 0.0234375 0  0.0625 0.0234375 0  0.0703125 0.0234375 0  0.078125 0.0234375 0  0.0859375 0.0234375 0  0.09375 0.0234375 0  0.1015625 0.0234375 0  0.109375 0.0234375 0  0.1171875 0.0234375 0  0.125 0.0234375 0  0.1328125 0.0234375 0  0.140625 0.0234375 0  0.1484375 0.0234375 0  0.15625 0.0234375 0  0.1640625 0.0234375 0  0.171875 0.0234375 0  0.1796875 0.0234375 0  0.1875 0.0234375 0  0.1953125 0.0234375 0  0.203125 0.0234375 0  0.2109375 0.0234375 0  0.21875 0.0234375 0  0.2265625 0.0234375 0  0.234375 0.0234375 0  0.2421875 0.0234375 0  0.25 0.0234375 0  0.2578125 0.0234375 0  0.265625 0.0234375 0  0.2734375 0.0234375 0  0.28125 0.0234375 0  0.2890625 0.0234375 0  0.296875 0.0234375 0  0.3046875 0.0234375 0  0.3125 0.0234375 0  0.3203125 0.0234375 0  0.328125 0.0234375 0  0.3359375 0.0234375 0  0.34375 0.0234375 0  0.3515625 0.0234375 0  0.359375 0.0234375 0  0.3671875 0.0234375 0  0.375 0.0234375 0  0.3828125 0.0234375 0  0.390625 0.0234375 0  0.3984375 0.0234375 0  0.40625 0.0234375 0  0.4140625 0.0234375 0  0.421875 0.0234375 0  0.4296875 0.0234375 0  0.4375 0.0234375 0  0.4453125 0.0234375 0  0.453125 0.0234375 0  0.4609375 0.0234375 0  0.46875 0.0234375 0  0.4765625 0.0234375 0  0.484375 0.0234375 0  0.4921875 0.0234375 0  0.5 0.0234375 0  0.5078125 0.0234375 0  0.515625 0.0234375 0  0.5234375 0.0234375 0  0.53125 0.0234375 0  0.5390625 0.0234375 0  0.546875 0.0234375 0  0.5546875 0.0234375 0  0.5625 0.0234375 0  0.5703125 0.0234375 0  0.578125 0.0234375 0  0.5859375 0.0234375 0  0.59375 0.0234375 0  0.6015625 0.0234375 0  0.609375 0.0234375 0  0.6171875 0.0234375 0  0.625 0.0234375 0  0.6328125 0.0234375 0  0.640625 0.0234375 0  0.6484375 0.0234375 0  0.65625 0.0234375 0  0.6640625 0.0234375 0  0.671875 0.0234375 0  0.6796875 0.0234375 0  0.6875 0.0234375 0  0.6953125 0.0234375 0  0.703125 0.0234375 0  0.7109375 0.0234375 0  0.71875 0.0234375 0  0.7265625 0.0234375 0  0.734375 0.0234375 0  0.7421875 0.0234375 0  0.75 0.0234375 0  0.7578125 0.0234375 0  0.765625 0.0234375 0  0.7734375 0.0234375 0  0.78125 0.0234375 0  0.7890625 0.0234375 0  0.796875 0.0234375 0  0.8046875 0.0234375 0  0.8125 0.0234375 0  0.8203125 0.0234375 0  0.828125 0.0234375 0  0.8359375 0.0234375 0  0.84375 0.0234375 0  0.8515625 0.0234375 0  0.859375 0.0234375 0  0.8671
[...]
<PointData  Scalars="v_sol"> 
<DataArray  type="Float64"  Name="v_sol"  format="ascii">-1.9995964716912368e-06  1.1717528268338770e-06  1.3256442809994569e-05  2.5873814754809570e-05  3.6308981989609411e-05  4.3807076595836908e-05  4.8135496801219479e-05  4.9420850178404569e-05  4.7983215230036916e-05  4.4326234528331734e-05  3.9060545047381586e-05  3.2848095465984660e-05  2.6332297771899597e-05  2.0083753785802749e-05  1.4557296435249224e-05  1.0067367215723626e-05  6.7785204205540692e-06  4.7096904685703477e-06  3.7488264257059105e-06  3.6758611406006420e-06  4.1921898569343874e-06  4.9551429293904335e-06  5.6149807589701842e-06  5.8505396758907561e-06  5.3984475765198297e-06  4.0707390647213029e-06  1.7574739624703499e-06  -1.5856751966958322e-06  -5.9610232070944427e-06  -1.1356661899416886e-05  -1.7770518272905587e-05  -2.5225258067218335e-05  -3.3771305276291502e-05  -4.3479440144260477e-05  -5.4426223673284467e-05  -6.6679189725276413e-05  -8.0284368532983270e-05  -9.5258107756423903e-05  -1.1157815855362194e-04  -1.2917807513740043e-04  -1.4794615007738312e-04  -1.6771775481080130e-04  -1.8828571023792552e-04  -2.0938650643198979e-04  -2.3070237435490878e-04  -2.5187896833944539e-04  -2.7251734759625387e-04  -2.9219223482217178e-04  -3.1044741387187768e-04  -3.2682925685513075e-04  -3.4089622583658406e-04  -3.5220617810416882e-04  -3.6034868563684155e-04  -3.6494997076879992e-04  -3.6567985834899653e-04  -3.6225867213311415e-04  -3.5446081285733116e-04  -3.4211770515568945e-04  -3.2511887048532477e-04  -3.0341277702673899e-04  -2.7700669323879373e-04  -2.4596819037959777e-04  -2.1042460947383199e-04  -1.7056816980254983e-04  -1.2665550906160077e-04  -7.9012707879801944e-05  -2.8060709878831704e-05  2.5772188448421242e-05  8.1900029592822765e-05  1.3962890942127698e-04  1.9823109495911598e-04  2.5684891761096481e-04  3.1456095257782524e-04  3.7036022277080335e-04  4.2318813620150105e-04  4.7194865986523122e-04  5.1554290594154869e-04  5.5290179236901411e-04  5.8302752328359274e-04  6.0504041070155788e-04  6.1819081983749825e-04  6.2201544534241720e-04  6.1624856645462519e-04  6.0079565952418472e-04  5.7589890677212660e-04  5.4213200201161415e-04  5.0040929947012269e-04  4.5179470365113702e-04  3.9757902119890077e-04  3.3917615212134667e-04  2.7814052425162406e-04  2.1607862841073285e-04  1.5453101881986045e-04  9.5000660683646049e-05  3.8776681732600638e-05  -1.3015312959687985e-05  -5.9414399753749828e-05  -9.9772055983719023e-05  -1.3368452340812103e-04  -1.6094612854823990e-04  -1.8161833978007260e-04  -1.9595980219497703e-04  -2.0441931694058574e-04  -2.0757848443517479e-04  -2.0613202501542656e-04  -2.0083039598223625e-04  -1.9244697319646613e-04  -1.8173663206267341e-04  -1.6940515395542287e-04  -1.5608910298257179e-04  -1.4233703292670181e-04  -1.2860269374175405e-04  -1.1524908099496972e-04  -1.0255147464352517e-04  -9.0707262705951581e-05  -7.9846363520140104e-05  -7.0039571155753306e-05  -6.1300324118332785e-05  -5.3582267691724564e-05  -4.6769867016030035e-05  -4.0667724905069106e-05  -3.4991581239168257e-05  -2.9376202598461460e-05  -2.3407167032090438e-05  -1.6717378021273432e-05  -9.2024024642783170e-06  -1.4746730573229061e-06  3.9295410867804921e-06  1.6811466931203350e-06  1.1790788085407228e-05  1.2137384690882115e-07  -6.5934837152330499e-05  -1.3054720831932068e-04  -1.8386479288232536e-04  -2.2178251984045439e-04  -2.4359920296763136e-04  -2.4990080641561408e-04  -2.4239428525080241e-04  -2.2363781730261472e-04  -1.9676507456344017e-04  -1.6514964795618557e-04  -1.3207093982643198e-04  -1.0042600993761577e-04  -7.2517951573120427e-05  -4.9930942493173747e-05  -3.3486503343580782e-05  -2.3267262263949916e-05  -1.8693101944636352e-05  -1.8638065556802879e-05  -2.1579860758982216e-05  -2.5774505752675851e-05  -2.9444460233568146e-05  -3.0960551720825555e-05  -2.8991549315293245e-05  -2.2594422487349014e-05  -1.1227201416642072e-05  5.3160194499823119e-06  2.7027781019207828e-05  5.3831411505802802e-05  8.5705976180295798e-05  1.2276205001758068e-04  1.6525524529176404e-04  2.1354683289807869e-04  2.6803040325898533e-04  3.2905635661908473e-04  3.9686480678515623e-04  4.7154338073711490e-04  5.5298392194277814e-04  6.4086379731335800e-04  7.3463462808132812e-04  8.3349014404654140e-04  9.3640487246957396e-04  1.0420744635300189e-03  1.1489295496290364e-03  1.2552101390460699e-03  1.3589508399012484e-03  1.4580330563040474e-03  1.5502176083832815e-03  1.6332555637928157e-03  1.7049300786096729e-03  1.7630576426743770e-03  1.8055856402676479e-03  1.8306371660181391e-03  1.8365426851677062e-03  1.8218710963641090e-03  1.7854486666871994e-03  1.7263723195204807e-03  1.6440164798883772e-03  1.5380371529620128e-03  1.4083747904391247e-03  1.2552606041533469e-03  1.0792220290805139e-03  8.8110604983937730e-04  6.6207965172228203e-04  4.2366198910580533e-04  1.6787475911959947e-04  -1.0312438177388777e-04  -3.8655436426419964e-04  -6.7899371874336541e-04  -9.7672576335681538e-04  -1.2754341374970300e-03  -1.5703713122305455e-03  -1.8563401772724569e-03  -2.1278120063260102e-03  -2.3790318825313525e-03  -2.6041858379062923e-03  -2.7975889434018989e-03  -2.9539154147338294e-03  -3.0684187471739129e-03  -3.1371876937058272e-03  -3.1575862500476072e-03  -3.1281319695487548e-03  -3.0484827010782184e-03  -2.9199851656735911e-03  -2.7458804124646718e-03  -2.5309334254800166e-03  -2.2807024930778692e-03  -2.0019750852222026e-03  -1.7023955269873988e-03  -1.3902566849390181e-03  -1.0738372325063441e-03  -7.6094441374603922e-04  -4.5919180035304167e-04  -1.7517028462565043e-04  8.5497729611737127e-05  3.1820631041880657e-04  5.1987305037748822e-04  6.8854913811109059e-04  8.2343514967396882e-04  9.2502869170762363e-04  9.9476350497353571e-04  1.0350179291242604e-03  1.0488174000266306e-03  1.0396988292826633e-03  1.0114715906363121e-03  9.6802620435761360e-04  9.1314780876714083e-04  8.5036356090164504e-04  7.8284481192852505e-04  7.1331890202214860e-04  6.4403594401620098e-04  5.7678647495748732e-04  5.1292756913580981e-04  4.5343132599288835e-04  3.9893370818322465e-04  3.4977809478115311e-04  3.0602758734658131e-04  2.6744772642428447e-04  2.3346025816077924e-04  2.0307932264654392e-04  1.7487130929234193e-04  1.4695947890451920e-04  1.1722292696554017e-04  8.3641248800159180e-05  4.5551168319025328e-05  5.5392939608737083e-06  -2.4016853920337491e-05  -6.9685323032432529e-06  2.2261005014216584e-05  -9.3312130434563111e-05  -3.2786077937850219e-04  -5.6496531415312480e-04  -7.6470621198337929e-04  -9.0949865168320817e-04  -9.9370580188199191e-04  -1.0183527229710428e-03  -9.8925025223771260e-04  -9.1578032097886896e-04  -8.0965397580351440e-04  -6.8361920952107757e-04  -5.5019396152743291e-04  -4.2056810274349141e-04  -3.0376656639285299e-04  -2.0611699632089008e-04  -1.3101636721436760e-04  -7.8962325785101310e-05  -4.7806314274092240e-05  -3.3188359896375039e-05  -2.9119749903695818e-05  -2.8675131719341684e-05  -2.4736802687888466e-05  -1.0709578146657656e-05  1.8896362491585881e-05  6.8113403654641914e-05  1.3945656507639571e-04  2.3415097081865333e-04  3.5256747746587427e-04  4.9473229396422580e-04  6.6076432930909517e-04  8.5112699346031641e-04  1.0666550312965800e-03  1.3083874830295591e-03  1.5772925683376715e-03  1.8739510082978971e-03  2.1982991867405877e-03  2.5494294732318280e-03  2.9254873112246902e-03  3.3235578397798845e-03  3.7396002582615068e-03  4.1685031324437674e-03  4.6040568445469355e-03  5.0391252410054701e-03  5.4657670673811543e-03  5.8753428173850195e-03  6.2588195801548683e-03  6.6070184668684095e-03  6.9109003571380841e-03  7.1618211913944520e-03  7.3517906622524382e-03  7.4737018012336768e-03  7.5214771825433966e-03  7.4901942303392472e-03  7.3761490142814305e-03  7.1768702124555403e-03  6.8910948637448659e-03  6.5187143158267485e-03  6.0607039696268603e-03  5.5190479471710820e-03  4.8966705228745567e-03  4.1973816904846304e-03  3.4258468282222930e-03  2.5875716060769554e-03  1.6889246002091702e-03  7.3721665614010325e-04  -2.5963375384803575e-04  -1.2922072410208238e-03  -2.3499646108886951e-03  -3.4215848367674111e-03  -4.4943610584572101e-03  -5.5545698348971511e-03  -6.5873637600149292e-03  -7.5770075374525497e-03  -8.5070541066198154e-03  -9.3606790733625610e-03  -1.0121068521673928e-02  -1.0771910644182991e-02  -1.1297945320520867e-02  -1.1685581383485659e-02  -1.1923537830836080e-02  -1.2003358016145015e-02  -1.1920096450125936e-02  -1.1672826967763367e-02  -1.1264586072878124e-02  -1.0702177886297402e-02  -9.9969701286242822e-03  -9.1656073730640494e-03  -8.2275053506981992e-03  -7.2042558287343699e-03  -6.1191794299912299e-03  -4.9975038533385478e-03  -3.8654493767291301e-03  -2.7477136153279654e-03  -1.6679682015198511e-03  -6.4787501949134854e-04  2.9378117380882558e-04  1.1410716645286170e-03  1.8822526099544184e-03  2.5094328788791320e-03  3.0183261422004645e-03  3.4088845002350800e-03  3.6846240044686629e-03  3.8524731463371086e-03  3.9221269786171853e-03  3.9054367969482673e-03  3.8156592196687037e-03  3.6667039221674560e-03  3.4724237145937341e-03  3.2459678992229173e-03  2.9993167126441890e-03  2.7429628180246275e-03  2.4857278529618761e-03  2.2347185701325836e-03  1.9953938322110260e-03  1.7717030741609731e-03  1.5661850845614534e-03  1.3800184071985609e-03  1.2129810877847330e-03  1.0633251320345647e-03  9.2763168800283498e-04  8.0076250273052529e-04  6.7609991944105811e-04  5.4636571354055741e-04  4.0546816741087387e-04  2.5221477055380138e-04  9.7706398651133943e-05  -2.3240717307196213e-05  -1.9413631417718297e-05  2.2741540483822606e-05  -3.1594355734739475e-04  -7.8275983338605087e-04  -1.2424369560563879e-03  -1.6294677959761345e-03  -1.9107292181078741e-03  -2.0732481963708824e-03  -2.1177208592817560e-03  -2.0547967930236444e-03  -1.9024859885608488e-03  -1.6835495746342483e-03  -1.4229047527829425e-03  -1.1451383151920296e-03  -8.7235212994084287e-04  -6.2249146099965433e-04  -4.0823602140821420e-04  -2.3645725107131199e-04  -1.0819946279235560e-04  -1.9120754730898251e-05  3.9669499023440045e-05  8.0444506774650460e-05  1.1745319447585017e-04  1.6539838886744850e-04  2.3798049862906075e-04  3.4671816423787426e-04  5.0023984585180774e-04  7.0415779935436098e-04  9.6150093776224330e-04  1.2735365668629600e-03  1.6407087122441476e-03  2.0634076137515949e-03  2.5423721675924158e-03  3.0786482181777773e-03  3.6731873869692011e-03  4.3262495104678354e-03  5.0368083827138773e-03  5.8019914333789849e-03  6.6167154045266244e-03  7.4734756053183157e-03  8.3623285034817047e-03  9.2709514111095348e-03  1.0184734559950878e-02  1.1087155090596301e-02  1.1960161281129427e-02  1.2784730695832880e-02  1.3541528440618553e-02  1.4211528636087550e-02  1.4776692538059601e-02  1.5220574238983419e-02  1.5528840664292160e-02  1.5689661643614287e-02  1.5693954901146650e-02  1.5535492148257323e-02  1.5210863831559172e-02  1.4719334891094260e-02  1.4062614150683127e-02  1.3244571332199294e-02  1.2270933203333979e-02  1.1148987072943988e-02  9.8873150895171114e-03  8.4955764504424918e-03  6.9843485835162158e-03  5.3650322263220770e-03  3.6498135767868921e-03  1.8517094203102586e-03  -1.5573162822510301e-05  -1.9367914190332989e-03  -3.8958309355573983e-03  -5.8756236435193515e-03  -7.8573684973476440e-03  -9.8209640297364960e-03  -1.1744718323827544e-02  -1.3605531783853307e-02  -1.5378980983882304e-02  -1.7039627732110485e-02  -1.8561404374163242e-02  -1.9918168353567366e-02  -2.1084374796938320e-02  -2.2035878650700010e-02  -2.2750820867393103e-02  -2.3210557719015534e-02  -2.3400623132262949e-02  -2.3311534676943413e-02  -2.2939503854635720e-02  -2.2287124786923147e-02  -2.1364077008516870e-02  -2.0186172653341973e-02  -1.8774187980253834e-02  -1.7155820814628821e-02  -1.5364731443047687e-02  -1.3438956232757218e-02  -1.1417759649993076e-02  -9.3410598912448232e-03  -7.2511882093394039e-03  -5.1895942284906158e-03  -3.1955435741465987e-03  -1.3055045683953621e-03  4.4807492989005023e-04  2.0364570582531195e-03  3.4370742439765829e-03  4.6339488187075771e-03  5.6169289986380570e-03  6.3831253643930625e-03  6.9363318676338567e-03  7.2868247755027591e-03  7.4505485398923378e-03  7.4480492457488258e-03  7.3031575639867742e-03  7.0415326907730651e-03  6.6892478963152518e-03  6.2714877552857489e-03  5.8114976599024752e-03  5.3298302349173302e-03  4.8439415124084543e-03  4.3680391262825970e-03  3.9130460343470043e-03  3.4866986977263865e-03  3.0935942513247660e-03  2.7351130365367263e-03  2.4092545278393955e-03  2.1104733763806153e-03  1.8297558769982364e-03  1.5552601008484677e-03  1.2740670558122223e-03  9.7560402206377283e-04  6.5802212024859078e-04  3.3876368754476657e-04  6.9436736161620138e-05  -2.6040193722127090e-05  1.8315080676187021e-05  -6.5154480735959064e-04  -1.4133715266664963e-03  -2.1328155693009728e-03  -2.7296926302666840e-03  -3.1586606424598620e-03  -3.4004173272140308e-03  -3.4559174384271416e-03  -3.3416705031822707e-03  -3.0857355401955628e-03  -2.7235757900432732e-03  -2.2939525808565904e-03  -1.8350607030026677e-03  -1.3811995886150522e-03  -9.6018094598446485e-04  -5.9157572347998989e-04  -2.8581258125641841e-04  -4.4081273646589221e-05  1.4102693185863470e-04  2.8422163717110253e-04  4.0565669565157010e-04  5.2865540051871341e-04  6.7724272752480157e-04  8.7379257737541774e-04  1.1371418579502975e-03  1.4814811484918184e-03  1.9161791610670187e-03  2.4464662743601540e-03  3.0746738208202698e-03  3.8015858505108693e-03  4.6274559855899212e-03  5.5524036941621054e-03  6.5761644183702757e-03  7.6973089903466657e-03  8.9122256216486884e-03  1.0214166351612064e-02  1.1592610677707277e-02  1.3032853353286362e-02  1.4515896659571535e-02  1.6018664416111068e-02  1.7514490186367710e-02  1.8973904623289274e-02  2.0365555105381360e-02  2.1657358545555332e-02  2.2817740402811967e-02  2.3816865048961890e-02  2.4627786104451661e-02  2.5227397367247766e-02  2.5597144604308085e-02  2.5723443110137391e-02  2.5597798288354946e-02  2.5216653816461321e-02  2.4581014297069465e-02  2.3695901279488795e-02  2.2569709278373960e-02  2.1213526424918541e-02  1.9640474623061541e-02  1.7865114764144246e-02  1.5902946868466768e-02  1.3770025058168090e-02  1.1482694234053441e-02  9.0574496299093265e-03  6.5109045075285345e-03  3.8598814694105993e-03  1.1214964935438115e-03  -1.6862503402084849e-03  -4.5448279898184082e-03  -7.4347107944249648e-03  -1.0334612459955544e-02  -1.3221663448738005e-02  -1.6070990700359701e-02  -1.8855644781508658e-02  -2.1546537290113101e-02  -2.4112564492946149e-02  -2.6520873227229708e-02  -2.8737330638549930e-02  -3.0727185359275933e-02  -3.2455935406548023e-02  -3.3890376163881158e-02  -3.4999799370066871e-02  -3.5757289285384970e-02  -3.6141022734590453e-02  -3.6135521524378870e-02  -3.5732735616801028e-02  -3.4932892615975569e-02  -3.3744706334086855e-02  -3.2185998554365110e-02  -3.0283765721539176e-02  -2.8072172806271129e-02  -2.5591674455270632e-02  -2.2887834975607549e-02  -2.0012106584477826e-02  -1.7019561218026443e-02  -1.3964686331647339e-02  -1.0901940739319880e-02  -7.8851651020817263e-03  -4.9664287494048465e-03  -2.1946451302594567e-03  3.8643910322432051e-04  2.7369373049621580e-03  4.8235941965748810e-03  6.6217783904289670e-03  8.1144317045694827e-03  9.2941213424139087e-03  1.0163048952005153e-02  1.0732969990791440e-02  1.1024465801774274e-02  1.1065569347453643e-02  1.0889956419691810e-02  1.0534797451574438e-02  1.0038554074972870e-02  9.4389212854488289e-03  8.7711287839903670e-03  8.0666439197646100e-03  7.3523300478232816e-03  6.6500569947990015e-03  5.9764631430924680e-03  5.3427947931568879e-03  4.7547478938098180e-03  4.2122270470217509e-03  3.7091983913970293e-03  3.2339307351589778e-03  2.7700799487111660e-03  2.2992848309218786e-03  1.8058976069947733e-03  1.2851068689988759e-03  7.5510514183763685e-04  2.7339758432639937e-04  -2.7141816225612662e-05  1.1246515693047635e-05  -1.0796217348938856e-03  -2.1942224921080201e-03  -3.2050603447334883e-03  -4.0251459106148638e-03  -4.6017436059408029e-03  -4.9122623746609521e-03  -4.9601184214250566e-03  -4.7696432039539662e-03  -4.3807774729281053e-03  -3.8432993002765290e-03  -3.2110822857639569e-03  -2.5367691720619974e-03  -1.8672439755321483e-03  -1.2401349381525458e-03  -6.8145316001514322e-04  -2.0436939266343883e-04  1.9091769190519969e-04  5.1628843557481000e-04  7.9386418491535671e-04  1.0533387482855631e-03  1.3286903094694637e-03  1.6546168634391652e-03  2.0631675917101447e-03  2.5810977072805523e-03  3.2283758390686816e-03  4.0180213986995882e-03  4.9571012385135824e-03  6.0483784538988197e-03  7.2919572761306582e-03  8.6863555722930356e-03  1.0228651501625689e-02  1.1913756589485215e-02  1.3733225173027159e-02  1.5673953124996354e-02  1.7717099820924863e-02  1.9837483779874744e-02  2.2003605012495382e-02  2.4178208150436337e-02  2.6319305516059568e-02  2.8381651904334500e-02  3.0318527347749046e-02  3.2083723702188149e-02  3.3633550489113671e-02  3.4928697421801595e-02  3.5935793289175670e-02  3.6628537477553312e-02  3.6988332896137351e-02  3.7004407725953620e-02  3.6673472923205289e-02  3.5999001712784438e-02  3.4990242537995715e-02  3.3661082993112337e-02  3.2028876973974045e-02  3.0113327796634663e-02  2.7935495867590275e-02  2.5516975563548514e-02  2.2879264005352742e-02  2.0043326154139101e-02  1.7029347046406101e-02  1.3856655044007328e-02  1.0543792598430827e-02  7.1087196568989670e-03  3.5690939192294878e-03  -5.7243381269087158e-05  -3.7520978254095166e-03  -7.4963464814301944e-03  -1.1269179621863058e-02  -1.5047918466508192e-02  -1.8807515563323111e-02  -2.2520160397032703e-02  -2.6155053985295901e-02  -2.9678254921928566e-02  -3.3052741688419270e-02  -3.6238662306741172e-02  -3.9193840256506247e-02  -4.1874542103280822e-02  -4.4236524822433856e-02  -4.6236348475741124e-02  -4.7832920480141143e-02  -4.8989203554502585e-02  -4.9674001396524163e-02  -4.9863693942669630e-02  -4.9543799037772181e-02  -4.8710180266882910e-02  -4.7369963354983634e-02  -4.5541670974497052e-02  -4.3254807847071912e-02  -4.0549192505427510e-02  -3.7473697657939335e-02  -3.4084733699062855e-02  -3.0443187289556296e-02  -2.6612863262533218e-02  -2.2659948571855971e-02  -1.8651074672298908e-02  -1.4651755182367047e-02  -1.0724761573500032e-02  -6.9299474160914041e-03  -3.3244846215605313e-03  3.9684948231607968e-05  3.1146467198162981e-03  5.8586468631549992e-03  8.2393930472845333e-03  1.0233307199826144e-02  1.1827904670750110e-02  1.3022737928317001e-02  1.3829590168213465e-02  1.4272033527484875e-02  1.4383943557688536e-02  1.4207319836741467e-02  1.3789542286982030e-02  1.3180437168123610e-02  1.2429448644194348e-02  1.1583215166584391e-02  1.0683694691416577e-02  9.7667754628186707e-03  8.8614120850078869e-03  7.9890161990952731e-03  7.1629101104299384e-03  6.3879089296131177e-03  5.6600864445642083e-03  4.9671031208905238e-03  4.2895921994078861e-03  3.6043185940088152e-03  2.8896935508508563e-03  2.1347050325331561e-03  1.3515038888637888e-03  5.9132969199203185e-04  -2.3233265010069539e-05  2.8535773528205789e-06  -1.5826670910059537e-03  -3.1014972496261539e-03  -4.4313955706218079e-03  -5.4824498086274700e-03  -6.1987786069672901e-03  -6.5583878170555991e-03  -6.5705944730441827e-03  -6.2706115401710656e-03  -5.7128653462387696e-03  -4.9634475677069545e-03  -4.0926112580494467e-03  -3.1679374131070529e-03  -2.2486498556056403e-03  -1.3813180412108564e-03  -5.9701790804554981e-04  9.0078170095940968e-05  6.8274063461851186e-04  1.1994074987168482e-03  1.6716541314725324e-03  2.1405432980411507e-03  2.6521446241211779e-03  3.2527211916924680e-03  3.9842656501230898e-03  4.8811076800820315e-03  5.9681424146614658e-03  7.2608034712458910e-03  8.7664174038384335e-03  1.0486192547746631e-02  1.2416921778879528e-02  1.4551755155707082e-02  1.6879911323727466e-02  1.9385505835569417e-02  2.2045986494799781e-02  2.4830849443727387e-02  2.7701044777209163e-02  3.0609225582356452e-02  3.3500866179206300e-02  3.6316161834821128e-02  3.8992524215313060e-02  4.1467438463496771e-02  4