<?xml version="1.0"?>
<VTKFile type="UnstructuredGrid"  version="0.1"  >
<UnstructuredGrid>
<Piece  NumberOfPoints="1089" NumberOfCells="1024">
<Points>
<DataArray  type="Float64"  NumberOfComponents="3"  format="ascii">0 0 0  0.03125 0 0  0.0625 0 0  0.09375 0 0  0.125 0 0  0.15625 0 0  0.1875 0 0  0.21875 0 0  0.25 0 0  0.28125 0 0  0.3125 0 0  0.34375 0 0  0.375 0 0  0.40625 0 0  0.4375 0 0  0.46875 0 0  0.5 0 0  0.53125 0 0  0.5625 0 0  0.59375 0 0  0.625 0 0  0.65625 0 0  0.6875 0 0  0.71875 0 0  0.75 0 0  0.78125 0 0  0.8125 0 0  0.84375 0 0  0.875 0 0  0.90625 0 0  0.9375 0 0  0.96875 0 0  1 0 0  0 0.03125 0  0.03125 0.03125 0  0.0625 0.03125 0  0.09375 0.03125 0  0.125 0.03125 0  0.15625 0.03125 0  0.1875 0.03125 0  0.21875 0.03125 0  0.25 0.03125 0  0.28125 0.03125 0  0.3125 0.03125 0  0.34375 0.03125 0  0.375 0.03125 0  0.40625 0.03125 0  0.4375 0.03125 0  0.46875 0.03125 0  0.5 0.03125 0  0.53125 0.03125 0  0.5625 0.03125 0  0.59375 0.03125 0  0.625 0.03125 0  0.65625 0.03125 0  0.6875 0.03125 0  0.71875 0.03125 0  0.75 0.03125 0  0.78125 0.03125 0  0.8125 0.03125 0  0.84375 0.03125 0  0.875 0.03125 0  0.90625 0.03125 0  0.9375 0.03125 0  0.96875 0.03125 0  1 0.03125 0  0 0.0625 0  0.03125 0.0625 0  0.0625 0.0625 0  0.09375 0.0625 0  0.125 0.0625 0  0.15625 0.0625 0  0.1875 0.0625 0  0.21875 0.0625 0  0.25 0.0625 0  0.28125 0.0625 0  0.3125 0.0625 0  0.34375 0.0625 0  0.375 0.0625 0  0.40625 0.0625 0  0.4375 0.0625 0  0.46875 0.0625 0  0.5 0.0625 0  0.53125 0.0625 0  0.5625 0.0625 0  0.59375 0.0625 0  0.625 0.0625 0  0.65625 0.0625 0  0.6875 0.0625 0  0.71875 0.0625 0  0.75 0.0625 0  0.78125 0.0625 0  0.8125 0.0625 0  0.84375 0.0625 0  0.875 0.0625 0  0.90625 0.0625 0  0.9375 0.0625 0  0.96875 0.0625 0  1 0.0625 0  0 0.09375 0  0.03125 0.09375 0  0.0625 0.09375 0  0.09375 0.09375 0  0.125 0.09375 0  0.15625 0.09375 0  0.1875 0.09375 0  0.21875 0.09375 0  0.25 0.09375 0  0.28125 0.09375 0  0.3125 0.09375 0  0.34375 0.09375 0  0.375 0.09375 0  0.40625 0.09375 0  0.4375 0.09375 0  0.46875 0.09375 0  0.5 0.09375 0  0.53125 0.09375 0  0.5625 0.09375 0  0.59375 0.09375 0  0.625 0.09375 0  0.65625 0.09375 0  0.6875 0.09375 0  0.71875 0.09375 0  0.75 0.09375 0  0.78125 0.09375 0  0.8125 0.09375 0  0.84375 0.09375 0  0.875 0.09375 0  0.90625 0.09375 0  0.9375 0.09375 0  0.96875 0.09375 0  1 0.09375 0  0 0.125 0  0.03125 0.125 0  0.0625 0.125 0  0.09375 0.125 0  0.125 0.125 0  0.15625 0.125 0  0.1875 0.125 0  0.21875 0.125 0  0.25 0.125 0  0.28125 0.125 0  0.3125 0.125 0  0.34375 0.125 0  0.375 0.125 0  0.40625 0.125 0  0.4375 0.125 0  0.46875 0.125 0  0.5 0.125 0  0.53125 0.125 0  0.5625 0.125 0  0.59375 0.125 0  0.625 0.125 0  0.65625 0.125 0  0.6875 0.125 0  0.71875 0.125 0  0.75 0.125 0  0.78125 0.125 0  0.8125 0.125 0  0.84375 0.125 0  0.875 0.125 0  0.90625 0.125 0  0.9375 0.125 0  0.96875 0.125 0  1 0.125 0  0 0.15625 0  0.03125 0.15625 0  0.0625 0.15625 0  0.09375 0.15625 0  0.125 0.15625 0  0.15625 0.15625 0  0.1875 0.15625 0  0.21875 0.15625 0  0.25 0.15625 0  0.28125 0.15625 0  0.3125 0.15625 0  0.34375 0.15625 0  0.375 0.15625 0  0.40625 0.15625 0  0.4375 0.15625 0  0.46875 0.15625 0  0.5 0.15625 0  0.53125 0.15625 0  0.5625 0.15625 0  0.59375 0.15625 0  0.625 0.15625 0  0.65625 0.15625 0  0.6875 0.15625 0  0.71875 0.15625 0  0.75 0.15625 0  0.78125 0.15625 0  0.8125 0.15625 0  0.84375 0.15625 0  0.875 0.15625 0  0.90625 0.15625 0  0.9375 0.15625 0  0.96875 0.15625 0  1 0.15625 0  0 0.1875 0  0.03125 0.1875 0  0.0625 0.1875 0  0.09375 0.1875 0  0.125 0.1875 0  0.15625 0.1875 0  0.1875 0.1875 0  0.21875 0.1875 0  0.25 0.1875 0  0.28125 0.1875 0  0.3125 0.1875 0  0.34375 0.1875 0  0.375 0.1875 0  0.40625 0.1875 0  0.4375 0.1875 0  0.46875 0.1875 0  0.5 0.1875 0  0.53125 0.1875 0  0.5625 0.1875 0  0.59375 0.1875 0  0.625 0.1875 0  0.65625 0.1875 0  0.6875 0.1875 0  0.71875 0.1875 0  0.75 0.1875 0  0.78125 0.1875 0  0.8125 0.1875 0  0.84375 0.1875 0  0.875 0.1875 0  0.90625 0.1875 0  0.9375 0.1875 0  0.96875 0.1875 0  1 0.1875 0  0 0.21875 0  0.03125 0.21875 0  0.0625 0.21875 0  0.09375 0.21875 0  0.125 0.21875 0  0.15625 0.21875 0  0.1875 0.21875 0  0.21875 0.21875 0  0.25 0.21875 0  0.28125 0.21875 0  0.3125 0.21875 0  0.34375 0.21875 0  0.375 0.21875 0  0.40625 0.21875 0  0.4375 0.21875 0  0.46875 0.21875 0  0.5 0.21875 0  0.53125 0.21875 0  0.5625 0.21875 0  0.59375 0.21875 0  0.625 0.21875 0  0.65625 0.21875 0  0.6875 0.21875 0  0.71875 0.21875 0  0.75 0.21875 0  0.78125 0.21875 0  0.8125 0.21875 0  0.84375 0.21875 0  0.875 0.21875 0  0.90625 0.21875 0  0.9375 0.21875 0  0.96875 0.21875 0  1 0.21875 0  0 0.25 0  0.03125 0.25 0  0.0625 0.25 0  0.09375 0.25 0  0.125 0.25 0  0.15625 0.25 0  0.1875 0.25 0  0.21875 0.25 0  0.25 0.25 0  0.28125 0.25 0  0.3125 0.25 0  0.34375 0.25 0  0.375 0.25 0  0.40625 0.25 0  0.4375 0.25 0  0.46875 0.25 0  0.5 0.25 0  0.53125 0.25 0  0.5625 0.25 0  0.59375 0.25 0  0.625 0.25 0  0.65625 0.25 0  0.6875 0.25 0  0.71875 0.25 0  0.75 0.25 0  0.78125 0.25 0  0.8125 0.25 0  0.84375 0.25 0  0.875 0.25 0  0.90625 0.25 0  0.9375 0.25 0  0.96875 0.25 0  1 0.25 0  0 0.28125 0  0.03125 0.28125 0  0.0625 0.28125 0  0.09375 0.28125 0  0.125 0.28125 0  0.15625 0.28125 0  0.1875 0.28125 0  0.21875 0.28125 0  0.25 0.28125 0  0.28125 0.28125 0  0.3125 0.28125 0  0.34375 0.28125 0  0.375 0.28125 0  0.40625 0.28125 0  0.4375 0.28125 0  0.46875 0.28125 0  0.5 0.28125 0  0.53125 0.28125 0  0.5625 0.28125 0  0.59375 0.28125 0  0.625 0.28125 0  0.65625 0.28125 0  0.6875 0.28125 0  0.71875 0.28125 0  0.75 0.28125 0  0.78125 0.28125 0  0.8125 0.28125 0  0.84375 0.28125 0  0.875 0.28125 0  0.90625 0.28125 0  0.9375 0.28125 0  0.96875 0.28125 0  1 0.28125 0  0 0.3125 0  0.03125 0.3125 0  0.0625 0.3125 0  0.09375 0.3125 0  0.125 0.3125 0  0.15625 0.3125 0  0.1875 0.3125 0  0.21875 0.3125 0  0.25 0.3125 0  0.28125 0.3125 0  0.3125 0.3125 0  0.34375 0.3125 0  0.375 0.3125 0  0.40625 0.3125 0  0.4375 0.3125 0  0.46875 0.3125 0  0.5 0.3125 0  0.53125 0.3125 0  0.5625 0.3125 0  0.59375 0.3125 0  0.625 0.3125 0  0.65625 0.3125 0  0.6875 0.3125 0  0.71875 0.3125 0  0.75 0.3125 0  0.78125 0.3125 0  0.8125 0.3125 0  0.84375 0.3125 0  0.875 0.3125 0  0.90625 0.3125 0  0.9375 0.3125 0  0.96875 0.3125 0  1 0.3125 0  0 0.34375 0  0.03125 0.34375 0  0.0625 0.34375 0  0.09375 0.34375 0  0.125 0.34375 0  0.15625 0.34375 0  0.1875 0.34375 0  0.21875 0.34375 0  0.25 0.34375 0  0.28125 0.34375 0  0.3125 0.34375 0  0.34375 0.34375 0  0.375 0.34375 0  0.40625 0.34375 0  0.4375 0.34375 0  0.46875 0.34375 0  0.5 0.34375 0  0.53125 0.34375 0  0.5625 0.34375 0  0.59375 0.34375 0  0.625 0.34375 0  0.65625 0.34375 0  0.6875 0.34375 0  0.71875 0.34375 0  0.75 0.34375 0  0.78125 0.34375 0  0.8125 0.34375 0  0.84375 0.34375 0  0.875 0.34375 0  0.90625 0.34375 0  0.9375 0.34375 0  0.96875 0.34375 0  1 0.34375 0  0 0.375 0  0.03125 0.375 0  0.0625 0.375 0  0.09375 0.375 0  0.125 0.375 0  0.15625 0.375 0  0.1875 0.375 0  0.21875 0.375 0  0.25 0.375 0  0.28125 0.375 0  0.3125 0.375 0  0.34375 0.375 0  0.375 0.375 0  0.40625 0.375 0  0.4375 0.375 0  0.46875 0.375 0  0.5 0.375 0  0.53125 0.375 0  0.5625 0.375 0  0.59375 0.375 0  0.625 0.375 0  0.65625 0.375 0  0.6875 0.375 0  0.71875 0.375 0  0.75 0.375 0  0.78125 0.375 0  0.8125 0.375 0  0.84375 0.375 0  0.875 0.375 0  0.90625 0.375 0  0.9375 0.375 0  0.96875 0.375 0  1 0.375 0  0 0.40625 0  0.03125 0.40625 0  0.0625 0.40625 0  0.09375 0.40625 0  0.125 0.40625 0  0.15625 0.40625 0  0.1875 0.40625 0  0.21875 0.40625 0  0.25 0.40625 0  0.28125 0.40625 0  0.3125 0.40625 0  0.34375 0.40625 0  0.375 0.40625 0  0.40625 0.40625 0  0.4375 0.40625 0  0.46875 0.40625 0  0.5 0.40625 0  0.53125 0.40625 0  0.5625 0.40625 0  0.59375 0.40625 0  0.625 0.40625 0  0.65625 0.40625 0  0.6875 0.40625 0  0.71875 0.40625 0  0.75 0.40625 0  0.78125 0.40625 0  0.8125 0.40625 0  0.84375 0.40625 0  0.875 0.40625 0  0.90625 0.40625 0  0.9375 0.40625 0  0.96875 0.40625 0  1 0.40625 0  0 0.4375 0  0.03125 0.4375 0  0.0625 0.4375 0  0.09375 0.4375 0  0.125 0.4375 0  0.15625 0.4375 0  0.1875 0.4375 0  0.21875 0.4375 0  0.25 0.4375 0  0.28125 0.4375 0  0.3125 0.4375 0  0.34375 0.4375 0  0.375 0.4375 0  0.40625 0.4375 0  0.4375 0.4375 0  0.46875 0.4375 0  0.5 0.4375 0  0.53125 0.4375 0  0.5625 0.4375 0  0.59375 0.4375 0  0.625 0.4375 0  0.65625 0.4375 0  0.6875 0.4375 0  0.71875 0.4375 0  0.75 0.4375 0  0.78125 0.4375 0  0.8125 0.4375 0  0.84375 0.4375 0  0.875 0.4375 0  0.90625 0.4375 0  0.9375 0.4375 0  0.96875 0.4375 0  1 0.4375 0  0 0.46875 0  0.03125 0.46875 0  0.0625 0.46875 0  0.09375 0.46875 0  0.125 0.46875 0  0.15625 0.46875 0  0.1875 0.46875 0  0.21875 0.46875 0  0.25 0.46875 0  0.28125 0.46875 0  0.3125 0.46875 0  0.34375 0.46875 0  0.375 0.46875 0  0.40625 0.46875 0  0.4375 0.46875 0  0.46875 0.46875 0  0.5 0.46875 0  0.53125 0.46875 0  0.5625 0.46875 0  0.59375 0.46875 0  0.625 0.46875 0  0.65625 0.46875 0  0.6875 0.46875 0  0.71875 0.46875 0  0.75 0.46875 0  0.78125 0.46875 0  0.8125 0.46875 0  0.84375 0.46875 0  0.875 0.46875 0  0.90625 0.46875 0  0.9375 0.46875 0  0.96875 0.46875 0  1 0.46875 0  0 0.5 0  0.03125 0.5 0  0.0625 0.5 0  0.09375 0.5 0  0.125 0.5 0  0.15625 0.5 0  0.1875 0.5 0  0.21875 0.5 0  0.25 0.5 0  0.28125 0.5 0  0.3125 0.5 0  0.34375 0.5 0  0.375 0.5 0  0.40625 0.5 0  0.4375 0.5 0  0.46875 0.5 0  0.5 0.5 0  0.53125 0.5 0  0.5625 0.5 0  0.59375 0.5 0  0.625 0.5 0  0.65625 0.5 0  0.6875 0.5 0  0.71875 0.5 0  0.75 0.5 0  0.78125 0.5 0  0.8125 0.5 0  0.84375 0.5 0  0.875 0.5 0  0.90625 0.5 0  0.9375 0.5 0  0.96875 0.5 0  1 0.5 0  0 0.53125 0  0.03125 0.53125 0  0.0625 0.53125 0  0.09375 0.53125 0  0.125 0.53125 0  0.15625 0.53125 0  0.1875 0.53125 0  0.21875 0.53125 0  0.25 0.53125 0  0.28125 0.53125 0  0.3125 0.53125 0  0.34375 0.53125 0  0.375 0.53125 0  0.40625 0.53125 0  0.4375 0.53125 0  0.46875 0.53125 0  0.5 0.53125 0  0.53125 0.53125 0  0.5625 0.53125 0  0.59375 0.53125 0  0.625 0.53125 0  0.65625 0.53125 0  0.6875 0.53125 0  0.71875 0.53125 0  0.75 0.53125 0  0.78125 0.531
[...]
<PointData  Scalars="v_sol"> 
<DataArray  type="Float64"  Name="v_sol"  format="ascii">4.0385238048649544e-06  1.9564203061603626e-04  2.8128297700601862e-04  -6.3727145210634961e-05  1.5326920744741442e-05  -2.9052178128895390e-03  1.2386271512352730e-03  6.3366519589067227e-03  -1.4554684418446840e-04  -2.4924314401991773e-03  -4.7714267291073358e-03  -9.9500346010856812e-03  -1.1203089401633434e-02  -8.8466429244714751e-03  -4.7669011531928209e-03  -9.8380884077435278e-04  1.9233878512563501e-03  3.8165844749195217e-03  5.0721924777435146e-03  5.8989021647394184e-03  6.7577944824917715e-03  7.3081858257331364e-03  7.4593584690822246e-03  6.2986084446084861e-03  3.9287308289975079e-03  7.4071276486169485e-04  -2.8991716632392355e-03  -3.9638828020602916e-03  -2.5844863571974235e-03  -1.2515070413412215e-03  -3.9870593273104996e-04  -8.7916473862659184e-05  8.0978156671117197e-05  2.1768073897478812e-04  -1.2168013556680447e-03  -1.1642193548251050e-03  -1.0235713663556184e-03  -1.1108027157162783e-03  1.1559004945608822e-02  -1.8906261719713942e-02  -2.2423640562491052e-02  1.3560578496149767e-02  1.0275889675679453e-02  2.2902341024693750e-02  3.7631646725524541e-02  4.2522903849542833e-02  4.1427024891346337e-02  3.4275454216747769e-02  2.3715283878861029e-02  9.8428237614940281e-03  -6.4066174237587458e-03  -2.4321144159860072e-02  -4.2240663976152365e-02  -5.5698585964042410e-02  -5.9921377091760097e-02  -4.8102130670167768e-02  -2.6319376941028112e-02  -4.9336256992356699e-03  1.0365640543624556e-02  1.7311490088277450e-02  1.8676452210737261e-02  1.2249840841624367e-02  5.6053488294490047e-03  1.7655857920394326e-03  1.3806405952428521e-04  -2.9079039979699431e-04  3.8424051915260951e-04  -4.6005530983576921e-03  -4.1506046738462839e-03  -3.2102345418979130e-03  1.2056378528597514e-02  4.3597512763142561e-02  -1.1851844463995306e-02  -3.1257969002418701e-02  3.9545647801549344e-02  8.1583639087994250e-02  1.1065302602975022e-01  1.1652306037880457e-01  1.0531960244019650e-01  8.4437948935230905e-02  6.0257382759539443e-02  3.5022398058348329e-02  9.0133056242039343e-03  -1.8644280046848649e-02  -4.8906633237458377e-02  -8.1539119875443822e-02  -1.1387628341205762e-01  -1.3752278982207808e-01  -1.4034141485499627e-01  -1.1205370807351776e-01  -6.3088977981551497e-02  -1.7032673174661124e-02  6.5576904072779012e-03  2.1120104814197790e-02  2.8642869856254378e-02  1.9773787459260960e-02  1.0301201500034246e-02  3.6535955062359624e-03  -3.4837190317061869e-04  -1.3334681757100819e-04  -9.0901885186057945e-03  -8.1464358908398728e-03  -5.2404174559522992e-03  1.7076047971388119e-03  3.1355910166660813e-03  3.2946784657576611e-02  1.0111253413704971e-01  1.5360603156171174e-01  1.8052275841138998e-01  1.7629765216280122e-01  1.5354303530874905e-01  1.2389606116284538e-01  9.3310023191102126e-02  6.3918079545911638e-02  3.5514503978168258e-02  7.3198136000713265e-03  -2.1950135805528372e-02  -5.3451305192674180e-02  -8.8598203111884419e-02  -1.2797489184977950e-01  -1.6971344879109351e-01  -2.0433754778630822e-01  -2.1275942139488890e-01  -1.7519923567284673e-01  -9.8837870789496962e-02  -2.8342432361365608e-02  1.8493348947593220e-03  1.9430794929081254e-02  2.7487585959181694e-02  1.7841997938944240e-02  9.8676206662681749e-03  8.0080021980459938e-04  -1.3290685640672734e-03  -1.6161831582322254e-02  -9.1143658187224884e-03  7.2411983220752891e-03  1.4703842669507673e-02  5.5333037185769526e-02  1.4571497998397462e-01  2.1312178420254321e-01  2.3132742513630011e-01  2.1664634880661646e-01  1.8586132723262891e-01  1.5267285358134414e-01  1.2031941357152545e-01  9.0304291986248827e-02  6.1292278495261018e-02  3.2986957278046326e-02  4.4108602976318792e-03  -2.4748437484809319e-02  -5.4824119016650762e-02  -8.6239371241709245e-02  -1.1949149040848760e-01  -1.5709287818146361e-01  -2.0099565884289070e-01  -2.4727027523177916e-01  -2.7173196601685723e-01  -2.3801495278025270e-01  -1.3585953785047147e-01  -3.4293631132032001e-02  5.8207201990826459e-03  1.9755650400690401e-02  2.3723326485757083e-02  1.4866741437592729e-02  8.0002519397570453e-04  -4.0040449804992148e-03  -2.4384084356815921e-02  -3.8397081930571743e-03  1.9269915034656821e-02  6.9047720959169140e-02  1.7263383836997084e-01  2.5525811754658784e-01  2.7399214077960404e-01  2.5301212158521608e-01  2.1729814186108537e-01  1.8292671199562421e-01  1.5157466143811030e-01  1.2250815877783666e-01  9.3577401871419774e-02  6.4238676422652227e-02  3.4351569584261846e-02  3.7937148231201633e-03  -2.7453216288390359e-02  -5.9685335462446427e-02  -9.2439833874309721e-02  -1.2517465978872361e-01  -1.5610042219941175e-01  -1.8653721614990160e-01  -2.2249232299858632e-01  -2.7224648925369638e-01  -3.1421596303916788e-01  -2.9030394655013719e-01  -1.6175244279367551e-01  -2.9536724198130783e-02  1.3986906756184799e-02  1.9579730731849709e-02  1.9945172627102027e-02  2.3393729424637816e-03  -1.0680576229994895e-02  -2.6058841710580892e-02  1.1234721773203974e-02  6.8635673001967420e-02  1.8195782218197903e-01  2.8602997628762783e-01  3.1056911191025965e-01  2.8460054293238873e-01  2.4650843984358844e-01  2.1198205202786302e-01  1.8347237978397177e-01  1.5534343160382041e-01  1.2632171198268036e-01  9.5639599079036811e-02  6.5053140611694885e-02  3.4206617413269552e-02  3.3898069579550061e-03  -2.7841362874440598e-02  -5.9705604755898360e-02  -9.2328677023627570e-02  -1.2628090617819526e-01  -1.6078750114439982e-01  -1.9414318648297293e-01  -2.2255929368819360e-01  -2.5095650938407948e-01  -2.9668214767650392e-01  -3.4903763990586140e-01  -3.2618856332977114e-01  -1.5961240418405767e-01  -1.1613493776506261e-02  2.2781564312499541e-02  2.1107304613427708e-02  6.0504782345540287e-04  -1.7565432859794530e-02  -2.2306353812041699e-02  5.3274624907372212e-02  1.6310747815538065e-01  2.9033152143624230e-01  3.3628837543720763e-01  3.1366450066622298e-01  2.7902572007782878e-01  2.4568896098598933e-01  2.1974772187780070e-01  1.9111288019586206e-01  1.6012564924915892e-01  1.2806604372749700e-01  9.7064496897316166e-02  6.6159922759853731e-02  3.4976034125599589e-02  3.3526375065171202e-03  -2.8840012983974060e-02  -6.1235050658487770e-02  -9.3969087273991531e-02  -1.2623946175467274e-01  -1.5886839853040147e-01  -1.9180901525668928e-01  -2.2604402837275900e-01  -2.5558584006758805e-01  -2.8272312311743458e-01  -3.2726280040558159e-01  -3.8413233094372762e-01  -3.3806947961783362e-01  -1.1617504871010331e-01  1.4540345589227763e-02  2.0224148443164450e-02  1.0583371791523686e-02  -2.2108191842705963e-02  4.2860576558567745e-03  1.2322758930998279e-01  2.6563377969916324e-01  3.5616273290208234e-01  3.5005822609111109e-01  3.1541445797189055e-01  2.7874822619364431e-01  2.5131367873443866e-01  2.2312761535264247e-01  1.9010734328281745e-01  1.5953253708193121e-01  1.2945937046114395e-01  9.9416829814123711e-02  6.7769937448681636e-02  3.6114814796876074e-02  3.9768344502300037e-03  -2.8292529491953967e-02  -6.0905975891923883e-02  -9.4090486238453605e-02  -1.2748430811754671e-01  -1.6118155618266813e-01  -1.9390914181700744e-01  -2.2628966149766117e-01  -2.5837792046492913e-01  -2.8649088445100540e-01  -3.1374670420311368e-01  -3.6510731226292209e-01  -4.1835504226873477e-01  -3.0302924703554129e-01  -3.9087366661727282e-02  3.8796079525268340e-02  -1.1487756533089626e-02  -1.7955422682717135e-02  5.1770819648815920e-02  2.0945544900416510e-01  3.4396288106350548e-01  3.7954787119363848e-01  3.4554859768717094e-01  3.0875541582117905e-01  2.8248090723679958e-01  2.5799020239346976e-01  2.2444850673816530e-01  1.9528625877974368e-01  1.6580200780503576e-01  1.3406198109933884e-01  1.0126627552130986e-01  6.9018965139330632e-02  3.6960881503574773e-02  4.4499775720892778e-03  -2.8193313583301786e-02  -6.1247807102537147e-02  -9.4031570133259440e-02  -1.2703321575621776e-01  -1.5955508266770477e-01  -1.9290830055056402e-01  -2.2590235090655478e-01  -2.6041480279354612e-01  -2.9242623892133324e-01  -3.1727377405261042e-01  -3.4593043518788352e-01  -4.1245967019124324e-01  -4.3278917678080819e-01  -1.8370907697431357e-01  2.8723730357785682e-02  6.6435967538319984e-03  -6.4356589300622437e-03  1.1988326352030307e-01  2.8811514996001852e-01  3.9005424594171784e-01  3.8465573996914010e-01  3.4549718536859036e-01  3.1872065364192576e-01  2.9126876441711497e-01  2.5815763001940262e-01  2.2699708941228947e-01  1.9883924446764417e-01  1.6496990479740031e-01  1.3326105628648213e-01  1.0227642349752421e-01  7.1165906072112789e-02  3.8614554167731803e-02  5.8521453161640338e-03  -2.7140784936612674e-02  -6.0515491602674970e-02  -9.3912810555761339e-02  -1.2793424763896555e-01  -1.6141431327980246e-01  -1.9486387053836171e-01  -2.2654162068191344e-01  -2.5841351969230925e-01  -2.9289292584693644e-01  -3.2652071320358356e-01  -3.4640122178522675e-01  -3.8690440938663445e-01  -4.6594509001261475e-01  -3.6340647727563624e-01  -2.2503170582100787e-02  4.0399079254860866e-02  1.7573762688726093e-02  1.9000855614718387e-01  3.4886360356031476e-01  4.1485555248513856e-01  3.8283644471515477e-01  3.4771788480515137e-01  3.1977499885698141e-01  2.9096864871059663e-01  2.6176610933202360e-01  2.3339996074461009e-01  2.0085930376893479e-01  1.6886010588512299e-01  1.3968788198600637e-01  1.0652200123558613e-01  7.3026450944804686e-02  3.9648562157527774e-02  6.8145041059705473e-03  -2.6506560079420961e-02  -5.9828002456828587e-02  -9.3168615332818588e-02  -1.2646693629079239e-01  -1.5980557993751079e-01  -1.9368269272387373e-01  -2.2818295293714397e-01  -2.6133278832616341e-01  -2.9269640175889744e-01  -3.2721034442937769e-01  -3.5776257555880114e-01  -3.7708020352686378e-01  -4.4858121401085838e-01  -4.7615619640820767e-01  -1.2593315474107752e-01  3.9993535464104078e-02  4.0335916940525844e-02  2.5593879753463822e-01  3.9226103220795000e-01  4.2715758430609763e-01  3.8484173297245106e-01  3.5540035886725491e-01  3.2932535355298492e-01  2.9823588516008936e-01  2.6596711161897185e-01  2.3466963233344923e-01  2.0203117600647441e-01  1.7253569353865747e-01  1.3901081729866929e-01  1.0507335458284994e-01  7.4100988605441856e-02  4.1778112128141032e-02  8.7297864842079444e-03  -2.5035909374191079e-02  -5.8648693635361314e-02  -9.2801918483280343e-02  -1.2676335361064259e-01  -1.6097738997369646e-01  -1.9416322960470822e-01  -2.2743882812917263e-01  -2.6082257142612852e-01  -2.9511799741066741e-01  -3.2807406039032805e-01  -3.6372921049635210e-01  -3.8356870811361021e-01  -4.2639024800628789e-01  -5.2046515912634750e-01  -2.7093449755586679e-01  5.5412799334089845e-02  5.9134912158921575e-02  3.0877765383039857e-01  4.2116100322164612e-01  4.3619605152978902e-01  3.8754966140231495e-01  3.6134943107684658e-01  3.2861987781221336e-01  2.9795726441518461e-01  2.6944433419804703e-01  2.3827954910992641e-01  2.0707036099192327e-01  1.7541549916328539e-01  1.4143902731609526e-01  1.1159792186991849e-01  7.8482508058662692e-02  4.3498648676061291e-02  9.9171531107997511e-03  -2.3826937237019681e-02  -5.7303724729677569e-02  -9.1271803752060079e-02  -1.2471775653611299e-01  -1.5899023806427623e-01  -1.9315042738252156e-01  -2.2840484681633783e-01  -2.6217981569974880e-01  -2.9605981333794740e-01  -3.2848021746817990e-01  -3.6712854069424689e-01  -3.9518379177985663e-01  -4.1708188754714476e-01  -5.2427586434999107e-01  -4.0524009451296256e-01  5.3944716089359114e-02  6.6648015217318515e-02  3.4866899185344918e-01  4.4099957383476657e-01  4.4233989130121759e-01  3.9366578601485502e-01  3.6830864474803104e-01  3.3670221648779169e-01  3.0660314503277891e-01  2.7277172188244891e-01  2.4004429079089126e-01  2.0890162927465566e-01  1.7579467621901021e-01  1.4417807868160570e-01  1.1189161041823982e-01  7.6196310934691910e-02  4.4736906638872614e-02  1.2310831448456738e-02  -2.1808900460063844e-02  -5.5702402329760987e-02  -9.0178328748389006e-02  -1.2423340240799384e-01  -1.5887389054000675e-01  -1.9236526221763642e-01  -2.2672143174253742e-01  -2.6092572991734320e-01  -2.9754730083793990e-01  -3.3107762520843936e-01  -3.6696288570529184e-01  -4.0534640749602419e-01  -4.2043493389018433e-01  -5.1711477626120872e-01  -5.0655978296357551e-01  3.6829495110748463e-02  6.4625247641791270e-02  3.7327965465164920e-01  4.5276016498447325e-01  4.4880721422016995e-01  3.9787257022036115e-01  3.7223193582193409e-01  3.3581505645443033e-01  3.0520573366848330e-01  2.7461447674992323e-01  2.4404806715907679e-01  2.1193701147109748e-01  1.7910781958354149e-01  1.4777024215058193e-01  1.1361887696288651e-01  8.1986233377740761e-02  5.0069234280097921e-02  1.3766692267756632e-02  -2.0165105427438226e-02  -5.3799138027670494e-02  -8.7840130215685569e-02  -1.2139314069471492e-01  -1.5602897215535902e-01  -1.9055279879615747e-01  -2.2634926757787574e-01  -2.6094816770587026e-01  -2.9616874355804190e-01  -3.3222955558309158e-01  -3.6827181754604810e-01  -4.1140307399634890e-01  -4.2910803514874013e-01  -5.0635900103838283e-01  -5.7673804452840682e-01  4.3027683088376562e-03  5.2299366151442407e-02  3.8386533311518051e-01  4.5981046411677023e-01  4.5242298851518031e-01  4.0335596199258861e-01  3.7649160630467604e-01  3.4320422149474161e-01  3.1276927133903515e-01  2.7779452213284694e-01  2.4512389265728332e-01  2.1266575729362622e-01  1.8043549997253847e-01  1.4819699309349826e-01  1.1473951400017858e-01  8.3346061127603316e-02  4.7637301281799896e-02  1.4640395289495779e-02  -1.6900980338467434e-02  -5.1625023976285309e-02  -8.5779665674790284e-02  -1.1978680596418287e-01  -1.5427407165203974e-01  -1.8820974062655807e-01  -2.2286384431136927e-01  -2.5848681720488209e-01  -2.9535507982326142e-01  -3.3279226058110145e-01  -3.6757584769388224e-01  -4.1418394627099742e-01  -4.3892445545531178e-01  -4.9776444221855198e-01  -6.2244506922503029e-01  -3.1362831572068255e-02  3.4512367120269942e-02  3.7854212532562925e-01  4.6060194461986215e-01  4.5567570088093834e-01  4.0572483362468992e-01  3.7765826283195569e-01  3.4117835858212936e-01  3.0941684401753433e-01  2.7862407543320633e-01  2.4776354366922188e-01  2.1521112102699075e-01  1.8285828720918162e-01  1.5048130808866370e-01  1.1792523379793807e-01  8.5613426470087739e-02  5.1875191061144799e-02  2.1368062233615748e-02  -1.5097912607289857e-02  -4.9533295726553531e-02  -8.1997255717749476e-02  -1.1599184778534445e-01  -1.4987701226817660e-01  -1.8485073531027343e-01  -2.2033746302959475e-01  -2.5615249906143678e-01  -2.9155457191522305e-01  -3.3075469838890487e-01  -3.6740589600764889e-01  -4.1335710349777360e-01  -4.4613607929603250e-01  -4.8797003748464624e-01  -6.5218896993958830e-01  -6.9138248792588786e-02  1.3340433002780507e-02  3.5739089164257187e-01  4.5703583544967552e-01  4.5519209016749362e-01  4.0918673889184909e-01  3.7910859820883092e-01  3.4735484791044635e-01  3.1563450350507927e-01  2.8085705896246776e-01  2.4762648287868844e-01  2.1527751217564753e-01  1.8303610587490748e-01  1.5077857931492886e-01  1.1822657323522423e-01  8.5918265674692379e-02  5.2967880980636171e-02  2.0264009072724493e-02  -1.5109618063083219e-02  -4.4512930553458160e-02  -7.8790770655868869e-02  -1.1302548714790858e-01  -1.4604298110740771e-01  -1.8051678489793563e-01  -2.1446629238598511e-01  -2.5104780855646935e-01  -2.8788605557087105e-01  -3.2715584779725765e-01  -3.6392142789063103e-01  -4.1002119702441159e-01  -4.5034143563927259e-01  -4.7896925143938618e-01  -6.6932642082331972e-01  -1.0278376178638360e-01  -5.4336458976746178e-03  3.1827770059174287e-01  4.4571499592778896e-01  4.5396997369138120e-01  4.0968442067626110e-01  3.7764693458610243e-01  3.4334069967283126e-01  3.1051601240541188e-01  2.8041792729809051e-01  2.4906988558693077e-01  2.1677766537516713e-01  1.8426765437644688e-01  1.5243359746744750e-01  1.2000827825731297e-01  8.8455291581798295e-02  5.5762418795450470e-02  2.3963939826252997e-02  -8.0465055223459033e-03  -3.9859029985075463e-02  -7.6258927113124361e-02  -1.0653110019254423e-01  -1.4000309257441795e-01  -1.7490444489206963e-01  -2.0909035891699349e-01  -2.4555621430880603e-01  -2.8066760504956184e-01  -3.2072355222384019e-01  -3.5953928529303958e-01  -4.0343805410217226e-01  -4.5009460772337423e-01  -4.6708543577116324e-01  -6.7845802260695087e-01  -1.3466867378177516e-01  -1.9498403175222584e-02  2.6223688205988605e-01  4.2664501907983793e-01  4.4842049912477366e-01  4.1212040445899706e-01  3.7727181268960153e-01  3.4828167087973605e-01  3.1565305144509076e-01  2.8109332211285959e-01  2.4759868248425110e-01  2.1579593313737766e-01  1.8330871558971745e-01  1.5194404723889005e-01  1.1945276975765785e-01  8.8385502691601142e-02  5.6273279288892177e-02  2.5083704312573996e-02  -7.3003290456476683e-03  -3.9441446746294143e-02  -7.0772482616114366e-02  -1.0002080646096313e-01  -1.3586433510964493e-01  -1.6729851199372719e-01  -2.0049957783011621e-01  -2.3698832110323489e-01  -2.7288349879585644e-01  -3.1247824757253700e-01  -3.5085539253777531e-01  -3.9440502177130943e-01  -4.4609770241726371e-01  -4.5439515752383075e-01  -6.7997037422281070e-01  -1.6108977803074104e-01  -2.5630290057979465e-02  1.9185906652057264e-01  3.9333002470599104e-01  4.4077594890119343e-01  4.1185503425363545e-01  3.7489460088669158e-01  3.4168763895371879e-01  3.0929159438332660e-01  2.7967869387815336e-01  2.4772572387970510e-01  2.1603003172319843e-01  1.8319394930970645e-01  1.5234185053273414e-01  1.2046819991317258e-01  8.9902681702579035e-02  5.8636248512569024e-02  2.8429358751622481e-02  -2.5308087937089057e-03  -3.2051394348411061e-02  -6.2820395360366876e-02  -9.4944923135420009e-02  -1.2825280567439773e-01  -1.5710741024949015e-01  -1.9322339546863215e-01  -2.2723430470639527e-01  -2.6130313348115836e-01  -3.0114013957629610e-01  -3.4035872936129707e-01  -3.8208724835615782e-01  -4.3725017193691518e-01  -4.3767491010201570e-01  -6.7704021126553093e-01  -1.8453103992269390e-01  -2.6154460989949627e-02  1.1738979806190367e-01  3.4251729999801966e-01  4.2435163997661735e-01  4.1333527516090024e-01  3.7554193355052767e-01  3.4596606388889478e-01  3.1328917914458099e-01  2.7872258715636106e-01  2.4468864798831844e-01  2.1360047455794065e-01  1.8118139070456743e-01  1.5021911975024979e-01  1.1899940082007880e-01  8.8977963884574157e-02  5.8640909451812988e-02  2.9395829583160622e-02  -4.9328355666958712e-04  -2.9633449516069648e-02  -6.0304921504140498e-02  -8.9206749111838637e-02  -1.1832594634792998e-01  -1.4765330500561802e-01  -1.8294961415275010e-01  -2.1272154940467952e-01  -2.4958595816570756e-01  -2.8744273267498555e-01  -3.2492288557727816e-01  -3.6708929162771009e-01  -4.2428573276454001e-01  -4.1902287978950103e-01  -6.6927522932242611e-01  -2.0165350931856332e-01  -2.2479046813326339e-02  5.2486161193945703e-02  2.6697076566444189e-01  3.9601734547989603e-01  4.0860954895968959e-01  3.7488767850895549e-01  3.3760968970272448e-01  3.0568729944509360e-01  2.7677583973449837e-01  2.4370078926839134e-01  2.1155187986721330e-01  1.7964949925604043e-01  1.4891107363915995e-01  1.1850523896242290e-01  8.9312245904881890e-02  6.0181427426766444e-02  3.2106436322147616e-02  3.7452820613998075e-03  -2.3518917700672708e-02  -5.1371075497157415e-02  -7.8135167901035571e-02  -1.0800115018921819e-01  -1.3828022623513492e-01  -1.7055186187210339e-01  -1.9737991880892311e-01  -2.3533728715383245e-01  -2.6876466244299024e-01  -3.0765884917542952e-01  -3.4838223444670086e-01  -4.0575352529238062e-01  -3.9512690384057547e-01  -6.5919244098178875e-01  -2.1602891290066650e-01  -1.3654926650842655e-02  8.6803662977444768e-03  1.7379403355212450e-01  3.4253504385515737e-01  3.9747982830608203e-01  3.7750781698815333e-01  3.4447577583690125e-01  3.0822021700650198e-01  2.7306128980601857e-01  2.3953320537786740e-01  2.0722944435240898e-01  1.7537933301634709e-01  1.4504599598046991e-01  1.1512145827557188e-01  8.6878439015383210e-02  5.8960761312040512e-02  3.2435528409528451e-02  5.7578498076753830e-03  -1.9939237535491126e-02  -4.6536545647546335e-02  -7.2753837321782366e-02  -1.0035523459369718e-01 