<?xml version="1.0"?>
<VTKFile type="UnstructuredGrid"  version="0.1"  >
<UnstructuredGrid>
<Piece  NumberOfPoints="1089" NumberOfCells="1024">
<Points>
<DataArray  type="Float64"  NumberOfComponents="3"  format="ascii">0 0 0  0.03125 0 0  0.0625 0 0  0.09375 0 0  0.125 0 0  0.15625 0 0  0.1875 0 0  0.21875 0 0  0.25 0 0  0.28125 0 0  0.3125 0 0  0.34375 0 0  0.375 0 0  0.40625 0 0  0.4375 0 0  0.46875 0 0  0.5 0 0  0.53125 0 0  0.5625 0 0  0.59375 0 0  0.625 0 0  0.65625 0 0  0.6875 0 0  0.71875 0 0  0.75 0 0  0.78125 0 0  0.8125 0 0  0.84375 0 0  0.875 0 0  0.90625 0 0  0.9375 0 0  0.96875 0 0  1 0 0  0 0.03125 0  0.03125 0.03125 0  0.0625 0.03125 0  0.09375 0.03125 0  0.125 0.03125 0  0.15625 0.03125 0  0.1875 0.03125 0  0.21875 0.03125 0  0.25 0.03125 0  0.28125 0.03125 0  0.3125 0.03125 0  0.34375 0.03125 0  0.375 0.03125 0  0.40625 0.03125 0  0.4375 0.03125 0  0.46875 0.03125 0  0.5 0.03125 0  0.53125 0.03125 0  0.5625 0.03125 0  0.59375 0.03125 0  0.625 0.03125 0  0.65625 0.03125 0  0.6875 0.03125 0  0.71875 0.03125 0  0.75 0.03125 0  0.78125 0.03125 0  0.8125 0.03125 0  0.84375 0.03125 0  0.875 0.03125 0  0.90625 0.03125 0  0.9375 0.03125 0  0.96875 0.03125 0  1 0.03125 0  0 0.0625 0  0.03125 0.0625 0  0.0625 0.0625 0  0.09375 0.0625 0  0.125 0.0625 0  0.15625 0.0625 0  0.1875 0.0625 0  0.21875 0.0625 0  0.25 0.0625 0  0.28125 0.0625 0  0.3125 0.0625 0  0.34375 0.0625 0  0.375 0.0625 0  0.40625 0.0625 0  0.4375 0.0625 0  0.46875 0.0625 0  0.5 0.0625 0  0.53125 0.0625 0  0.5625 0.0625 0  0.59375 0.0625 0  0.625 0.0625 0  0.65625 0.0625 0  0.6875 0.0625 0  0.71875 0.0625 0  0.75 0.0625 0  0.78125 0.0625 0  0.8125 0.0625 0  0.84375 0.0625 0  0.875 0.0625 0  0.90625 0.0625 0  0.9375 0.0625 0  0.96875 0.0625 0  1 0.0625 0  0 0.09375 0  0.03125 0.09375 0  0.0625 0.09375 0  0.09375 0.09375 0  0.125 0.09375 0  0.15625 0.09375 0  0.1875 0.09375 0  0.21875 0.09375 0  0.25 0.09375 0  0.28125 0.09375 0  0.3125 0.09375 0  0.34375 0.09375 0  0.375 0.09375 0  0.40625 0.09375 0  0.4375 0.09375 0  0.46875 0.09375 0  0.5 0.09375 0  0.53125 0.09375 0  0.5625 0.09375 0  0.59375 0.09375 0  0.625 0.09375 0  0.65625 0.09375 0  0.6875 0.09375 0  0.71875 0.09375 0  0.75 0.09375 0  0.78125 0.09375 0  0.8125 0.09375 0  0.84375 0.09375 0  0.875 0.09375 0  0.90625 0.09375 0  0.9375 0.09375 0  0.96875 0.09375 0  1 0.09375 0  0 0.125 0  0.03125 0.125 0  0.0625 0.125 0  0.09375 0.125 0  0.125 0.125 0  0.15625 0.125 0  0.1875 0.125 0  0.21875 0.125 0  0.25 0.125 0  0.28125 0.125 0  0.3125 0.125 0  0.34375 0.125 0  0.375 0.125 0  0.40625 0.125 0  0.4375 0.125 0  0.46875 0.125 0  0.5 0.125 0  0.53125 0.125 0  0.5625 0.125 0  0.59375 0.125 0  0.625 0.125 0  0.65625 0.125 0  0.6875 0.125 0  0.71875 0.125 0  0.75 0.125 0  0.78125 0.125 0  0.8125 0.125 0  0.84375 0.125 0  0.875 0.125 0  0.90625 0.125 0  0.9375 0.125 0  0.96875 0.125 0  1 0.125 0  0 0.15625 0  0.03125 0.15625 0  0.0625 0.15625 0  0.09375 0.15625 0  0.125 0.15625 0  0.15625 0.15625 0  0.1875 0.15625 0  0.21875 0.15625 0  0.25 0.15625 0  0.28125 0.15625 0  0.3125 0.15625 0  0.34375 0.15625 0  0.375 0.15625 0  0.40625 0.15625 0  0.4375 0.15625 0  0.46875 0.15625 0  0.5 0.15625 0  0.53125 0.15625 0  0.5625 0.15625 0  0.59375 0.15625 0  0.625 0.15625 0  0.65625 0.15625 0  0.6875 0.15625 0  0.71875 0.15625 0  0.75 0.15625 0  0.78125 0.15625 0  0.8125 0.15625 0  0.84375 0.15625 0  0.875 0.15625 0  0.90625 0.15625 0  0.9375 0.15625 0  0.96875 0.15625 0  1 0.15625 0  0 0.1875 0  0.03125 0.1875 0  0.0625 0.1875 0  0.09375 0.1875 0  0.125 0.1875 0  0.15625 0.1875 0  0.1875 0.1875 0  0.21875 0.1875 0  0.25 0.1875 0  0.28125 0.1875 0  0.3125 0.1875 0  0.34375 0.1875 0  0.375 0.1875 0  0.40625 0.1875 0  0.4375 0.1875 0  0.46875 0.1875 0  0.5 0.1875 0  0.53125 0.1875 0  0.5625 0.1875 0  0.59375 0.1875 0  0.625 0.1875 0  0.65625 0.1875 0  0.6875 0.1875 0  0.71875 0.1875 0  0.75 0.1875 0  0.78125 0.1875 0  0.8125 0.1875 0  0.84375 0.1875 0  0.875 0.1875 0  0.90625 0.1875 0  0.9375 0.1875 0  0.96875 0.1875 0  1 0.1875 0  0 0.21875 0  0.03125 0.21875 0  0.0625 0.21875 0  0.09375 0.21875 0  0.125 0.21875 0  0.15625 0.21875 0  0.1875 0.21875 0  0.21875 0.21875 0  0.25 0.21875 0  0.28125 0.21875 0  0.3125 0.21875 0  0.34375 0.21875 0  0.375 0.21875 0  0.40625 0.21875 0  0.4375 0.21875 0  0.46875 0.21875 0  0.5 0.21875 0  0.53125 0.21875 0  0.5625 0.21875 0  0.59375 0.21875 0  0.625 0.21875 0  0.65625 0.21875 0  0.6875 0.21875 0  0.71875 0.21875 0  0.75 0.21875 0  0.78125 0.21875 0  0.8125 0.21875 0  0.84375 0.21875 0  0.875 0.21875 0  0.90625 0.21875 0  0.9375 0.21875 0  0.96875 0.21875 0  1 0.21875 0  0 0.25 0  0.03125 0.25 0  0.0625 0.25 0  0.09375 0.25 0  0.125 0.25 0  0.15625 0.25 0  0.1875 0.25 0  0.21875 0.25 0  0.25 0.25 0  0.28125 0.25 0  0.3125 0.25 0  0.34375 0.25 0  0.375 0.25 0  0.40625 0.25 0  0.4375 0.25 0  0.46875 0.25 0  0.5 0.25 0  0.53125 0.25 0  0.5625 0.25 0  0.59375 0.25 0  0.625 0.25 0  0.65625 0.25 0  0.6875 0.25 0  0.71875 0.25 0  0.75 0.25 0  0.78125 0.25 0  0.8125 0.25 0  0.84375 0.25 0  0.875 0.25 0  0.90625 0.25 0  0.9375 0.25 0  0.96875 0.25 0  1 0.25 0  0 0.28125 0  0.03125 0.28125 0  0.0625 0.28125 0  0.09375 0.28125 0  0.125 0.28125 0  0.15625 0.28125 0  0.1875 0.28125 0  0.21875 0.28125 0  0.25 0.28125 0  0.28125 0.28125 0  0.3125 0.28125 0  0.34375 0.28125 0  0.375 0.28125 0  0.40625 0.28125 0  0.4375 0.28125 0  0.46875 0.28125 0  0.5 0.28125 0  0.53125 0.28125 0  0.5625 0.28125 0  0.59375 0.28125 0  0.625 0.28125 0  0.65625 0.28125 0  0.6875 0.28125 0  0.71875 0.28125 0  0.75 0.28125 0  0.78125 0.28125 0  0.8125 0.28125 0  0.84375 0.28125 0  0.875 0.28125 0  0.90625 0.28125 0  0.9375 0.28125 0  0.96875 0.28125 0  1 0.28125 0  0 0.3125 0  0.03125 0.3125 0  0.0625 0.3125 0  0.09375 0.3125 0  0.125 0.3125 0  0.15625 0.3125 0  0.1875 0.3125 0  0.21875 0.3125 0  0.25 0.3125 0  0.28125 0.3125 0  0.3125 0.3125 0  0.34375 0.3125 0  0.375 0.3125 0  0.40625 0.3125 0  0.4375 0.3125 0  0.46875 0.3125 0  0.5 0.3125 0  0.53125 0.3125 0  0.5625 0.3125 0  0.59375 0.3125 0  0.625 0.3125 0  0.65625 0.3125 0  0.6875 0.3125 0  0.71875 0.3125 0  0.75 0.3125 0  0.78125 0.3125 0  0.8125 0.3125 0  0.84375 0.3125 0  0.875 0.3125 0  0.90625 0.3125 0  0.9375 0.3125 0  0.96875 0.3125 0  1 0.3125 0  0 0.34375 0  0.03125 0.34375 0  0.0625 0.34375 0  0.09375 0.34375 0  0.125 0.34375 0  0.15625 0.34375 0  0.1875 0.34375 0  0.21875 0.34375 0  0.25 0.34375 0  0.28125 0.34375 0  0.3125 0.34375 0  0.34375 0.34375 0  0.375 0.34375 0  0.40625 0.34375 0  0.4375 0.34375 0  0.46875 0.34375 0  0.5 0.34375 0  0.53125 0.34375 0  0.5625 0.34375 0  0.59375 0.34375 0  0.625 0.34375 0  0.65625 0.34375 0  0.6875 0.34375 0  0.71875 0.34375 0  0.75 0.34375 0  0.78125 0.34375 0  0.8125 0.34375 0  0.84375 0.34375 0  0.875 0.34375 0  0.90625 0.34375 0  0.9375 0.34375 0  0.96875 0.34375 0  1 0.34375 0  0 0.375 0  0.03125 0.375 0  0.0625 0.375 0  0.09375 0.375 0  0.125 0.375 0  0.15625 0.375 0  0.1875 0.375 0  0.21875 0.375 0  0.25 0.375 0  0.28125 0.375 0  0.3125 0.375 0  0.34375 0.375 0  0.375 0.375 0  0.40625 0.375 0  0.4375 0.375 0  0.46875 0.375 0  0.5 0.375 0  0.53125 0.375 0  0.5625 0.375 0  0.59375 0.375 0  0.625 0.375 0  0.65625 0.375 0  0.6875 0.375 0  0.71875 0.375 0  0.75 0.375 0  0.78125 0.375 0  0.8125 0.375 0  0.84375 0.375 0  0.875 0.375 0  0.90625 0.375 0  0.9375 0.375 0  0.96875 0.375 0  1 0.375 0  0 0.40625 0  0.03125 0.40625 0  0.0625 0.40625 0  0.09375 0.40625 0  0.125 0.40625 0  0.15625 0.40625 0  0.1875 0.40625 0  0.21875 0.40625 0  0.25 0.40625 0  0.28125 0.40625 0  0.3125 0.40625 0  0.34375 0.40625 0  0.375 0.40625 0  0.40625 0.40625 0  0.4375 0.40625 0  0.46875 0.40625 0  0.5 0.40625 0  0.53125 0.40625 0  0.5625 0.40625 0  0.59375 0.40625 0  0.625 0.40625 0  0.65625 0.40625 0  0.6875 0.40625 0  0.71875 0.40625 0  0.75 0.40625 0  0.78125 0.40625 0  0.8125 0.40625 0  0.84375 0.40625 0  0.875 0.40625 0  0.90625 0.40625 0  0.9375 0.40625 0  0.96875 0.40625 0  1 0.40625 0  0 0.4375 0  0.03125 0.4375 0  0.0625 0.4375 0  0.09375 0.4375 0  0.125 0.4375 0  0.15625 0.4375 0  0.1875 0.4375 0  0.21875 0.4375 0  0.25 0.4375 0  0.28125 0.4375 0  0.3125 0.4375 0  0.34375 0.4375 0  0.375 0.4375 0  0.40625 0.4375 0  0.4375 0.4375 0  0.46875 0.4375 0  0.5 0.4375 0  0.53125 0.4375 0  0.5625 0.4375 0  0.59375 0.4375 0  0.625 0.4375 0  0.65625 0.4375 0  0.6875 0.4375 0  0.71875 0.4375 0  0.75 0.4375 0  0.78125 0.4375 0  0.8125 0.4375 0  0.84375 0.4375 0  0.875 0.4375 0  0.90625 0.4375 0  0.9375 0.4375 0  0.96875 0.4375 0  1 0.4375 0  0 0.46875 0  0.03125 0.46875 0  0.0625 0.46875 0  0.09375 0.46875 0  0.125 0.46875 0  0.15625 0.46875 0  0.1875 0.46875 0  0.21875 0.46875 0  0.25 0.46875 0  0.28125 0.46875 0  0.3125 0.46875 0  0.34375 0.46875 0  0.375 0.46875 0  0.40625 0.46875 0  0.4375 0.46875 0  0.46875 0.46875 0  0.5 0.46875 0  0.53125 0.46875 0  0.5625 0.46875 0  0.59375 0.46875 0  0.625 0.46875 0  0.65625 0.46875 0  0.6875 0.46875 0  0.71875 0.46875 0  0.75 0.46875 0  0.78125 0.46875 0  0.8125 0.46875 0  0.84375 0.46875 0  0.875 0.46875 0  0.90625 0.46875 0  0.9375 0.46875 0  0.96875 0.46875 0  1 0.46875 0  0 0.5 0  0.03125 0.5 0  0.0625 0.5 0  0.09375 0.5 0  0.125 0.5 0  0.15625 0.5 0  0.1875 0.5 0  0.21875 0.5 0  0.25 0.5 0  0.28125 0.5 0  0.3125 0.5 0  0.34375 0.5 0  0.375 0.5 0  0.40625 0.5 0  0.4375 0.5 0  0.46875 0.5 0  0.5 0.5 0  0.53125 0.5 0  0.5625 0.5 0  0.59375 0.5 0  0.625 0.5 0  0.65625 0.5 0  0.6875 0.5 0  0.71875 0.5 0  0.75 0.5 0  0.78125 0.5 0  0.8125 0.5 0  0.84375 0.5 0  0.875 0.5 0  0.90625 0.5 0  0.9375 0.5 0  0.96875 0.5 0  1 0.5 0  0 0.53125 0  0.03125 0.53125 0  0.0625 0.53125 0  0.09375 0.53125 0  0.125 0.53125 0  0.15625 0.53125 0  0.1875 0.53125 0  0.21875 0.53125 0  0.25 0.53125 0  0.28125 0.53125 0  0.3125 0.53125 0  0.34375 0.53125 0  0.375 0.53125 0  0.40625 0.53125 0  0.4375 0.53125 0  0.46875 0.53125 0  0.5 0.53125 0  0.53125 0.53125 0  0.5625 0.53125 0  0.59375 0.53125 0  0.625 0.53125 0  0.65625 0.53125 0  0.6875 0.53125 0  0.71875 0.53125 0  0.75 0.53125 0  0.78125 0.531
[...]
<PointData  Scalars="u_sol"> 
<DataArray  type="Float64"  Name="u_sol"  format="ascii">-7.1619199300005501e-05  -4.6186276229384331e-05  5.5476601531036164e-04  1.1266805088739728e-03  1.4063455659884653e-03  1.7031186732457317e-03  2.3472355579670415e-03  3.5603705593662935e-03  5.2883210854731480e-03  7.0133574326506614e-03  8.8469039726462237e-03  1.0994186599670504e-02  1.1844106412535011e-02  9.2310404471205535e-03  2.7230313328711680e-03  -6.0812869822426648e-03  -1.4579752414271733e-02  -2.0040417253594772e-02  -2.0112298391941192e-02  -1.4078814406233750e-02  -3.3529247051065046e-03  8.9331978692312672e-03  1.8675676088348785e-02  2.2594504758937383e-02  1.9873319481680536e-02  1.3458561553183875e-02  7.3678493045368412e-03  3.2938428370872038e-03  1.1635022690497097e-03  2.4851485282434958e-04  -1.3995060325308349e-04  -2.4785781077760720e-04  -2.8475450344265091e-05  -4.0754192992368827e-04  2.1394707506167542e-03  7.3303443877628695e-03  1.1608132473190197e-02  1.3191269144126322e-02  1.2631346508564708e-02  1.0499299219185349e-02  5.6072924317776855e-03  -4.3976233506407081e-03  -2.2530947652273092e-02  -5.1232646743131112e-02  -8.9219641994149279e-02  -1.3108849940896020e-01  -1.7016678436877822e-01  -2.0100641254210794e-01  -2.2014421351620730e-01  -2.2571273402484501e-01  -2.1712509627663068e-01  -1.9503746976065173e-01  -1.6093993935421269e-01  -1.1744126483666668e-01  -6.8853455630328159e-02  -2.1104475186713587e-02  1.9035065222613411e-02  4.6019817060428674e-02  5.7034201458782040e-02  5.3797167194737858e-02  4.2113962658771820e-02  2.8200266238708645e-02  1.6173156516680501e-02  7.3907038849656955e-03  1.7742749590252509e-03  -3.3814309421192651e-04  -6.1942133134075929e-04  3.3936960445095235e-03  1.0049746064091274e-02  1.3576958184093142e-02  1.2227443056727610e-02  5.9664210450154544e-03  -6.8381486526864288e-03  -3.0638951984069147e-02  -6.9623221459010121e-02  -1.2187688497244938e-01  -1.7934292638694227e-01  -2.3372562359175605e-01  -2.7961772999375323e-01  -3.1449518682826783e-01  -3.3788404247495413e-01  -3.5028230570185709e-01  -3.5238439260478516e-01  -3.4444945116586689e-01  -3.2610979382583377e-01  -2.9683411169883517e-01  -2.5636584745504282e-01  -2.0554591121849727e-01  -1.4748358126954203e-01  -8.8181698382060941e-02  -3.5741313123141695e-02  3.0649088554061178e-03  2.5714056291915796e-02  3.3552649451251228e-02  3.0395612671702682e-02  2.1479446584384870e-02  1.1563665643396739e-02  3.3171717205225464e-03  -5.5808838806002084e-04  -6.9254693686584439e-04  4.0240457508545074e-03  9.5014393467293227e-03  8.0938689266013605e-03  -1.2254245522532025e-03  -2.0249053746618517e-02  -5.4751448440759187e-02  -1.0750142994321023e-01  -1.7197343761308606e-01  -2.3711901336884705e-01  -2.9459191781970878e-01  -3.4084337976080181e-01  -3.7583127452962112e-01  -4.0098680451887991e-01  -4.1786511386291447e-01  -4.2761722051928758e-01  -4.3086851135080761e-01  -4.2782586487008922e-01  -4.1814843797807255e-01  -4.0054826637952312e-01  -3.7282048470307161e-01  -3.3236480943754915e-01  -2.7760903889700145e-01  -2.1040420009188188e-01  -1.3813832069104987e-01  -7.3073166124567684e-02  -2.6124989645159625e-02  1.0513142961418871e-03  1.3234648659149932e-02  1.4662311965913322e-02  9.7200390912952368e-03  3.0558434693328048e-03  -5.3336730551610913e-04  -5.1736626270831529e-04  3.7036912171313410e-03  4.4503606162453633e-03  -6.0520181730321070e-03  -2.8655993932806236e-02  -6.8308599103307610e-02  -1.2711911498016670e-01  -1.9640798932193854e-01  -2.6329060455139736e-01  -3.1928608882377940e-01  -3.6178015206819336e-01  -3.9179411542009013e-01  -4.1169165915114803e-01  -4.2395388099988124e-01  -4.3077401317701952e-01  -4.3396451425031868e-01  -4.3492311874336814e-01  -4.3453564204521122e-01  -4.3299195326034817e-01  -4.2948832272763704e-01  -4.2168772489850437e-01  -4.0521519056694394e-01  -3.7397012024865389e-01  -3.2232112459449686e-01  -2.4952383626994573e-01  -1.6449145508415408e-01  -8.6131414293248040e-02  -3.3076249799580772e-02  -6.6436382528078201e-03  3.7022337092372671e-03  4.8752730194893254e-03  1.7584734870922745e-03  -3.4092615810872774e-04  8.4440854462448941e-05  1.3642268455997580e-03  -6.6947526667367188e-03  -2.9860284805008776e-02  -6.9920879211628442e-02  -1.2885363419577708e-01  -1.9834021153695722e-01  -2.6425875926333836e-01  -3.1709952784079204e-01  -3.5421520393373918e-01  -3.7717111460756525e-01  -3.8928195465420945e-01  -3.9420036861878033e-01  -3.9512054960669957e-01  -3.9434456228420878e-01  -3.9324568399207377e-01  -3.9254028240425676e-01  -3.9263694362423740e-01  -3.9394108949666096e-01  -3.9685347493383022e-01  -4.0116831005590042e-01  -4.0484465651557699e-01  -4.0244038192659709e-01  -3.8458408549899886e-01  -3.4074483478918299e-01  -2.6633386988846175e-01  -1.7128012137676141e-01  -8.2268261139947216e-02  -2.7117102532671855e-02  -5.1315355965243685e-03  1.0043479164756708e-03  7.7558230135452708e-04  -1.4588611332629059e-04  1.0666431714283944e-03  -3.6688728097038349e-03  -2.3679187578165322e-02  -6.1050131150306913e-02  -1.1608953040321678e-01  -1.8274841385974061e-01  -2.4692868428775341e-01  -2.9729736274929736e-01  -3.3030924109307674e-01  -3.4782045308017540e-01  -3.5424012848869429e-01  -3.5453303648398138e-01  -3.5267114789506593e-01  -3.5086997016061977e-01  -3.4979262589524074e-01  -3.4928333715442555e-01  -3.4903139832557029e-01  -3.4892204358725459e-01  -3.4918604719457363e-01  -3.5050756077821732e-01  -3.5404028542924265e-01  -3.6097110596319459e-01  -3.7088466985826379e-01  -3.7871730562694667e-01  -3.7250502512983130e-01  -3.3641443847705194e-01  -2.6146212199421676e-01  -1.5901261220918564e-01  -6.5248604694119833e-02  -1.5237034228608075e-02  -1.0017342610174616e-03  1.0384129618110076e-03  -1.7986623385777685e-04  2.0383296644765755e-03  -1.0854311778502945e-02  -4.3561663797916074e-02  -9.2575066726204483e-02  -1.5417384294466008e-01  -2.1635711795280696e-01  -2.6609315799112082e-01  -2.9778513942459633e-01  -3.1295333968951344e-01  -3.1681838790626338e-01  -3.1553441296367196e-01  -3.1369568973044487e-01  -3.1324613629053799e-01  -3.1414050372083185e-01  -3.1562404255852350e-01  -3.1704505277584605e-01  -3.1805226364602068e-01  -3.1853995252902634e-01  -3.1854132236353755e-01  -3.1820737029080842e-01  -3.1803735228423580e-01  -3.1932256533581571e-01  -3.2436962659658597e-01  -3.3498075283213247e-01  -3.4761934212013251e-01  -3.4829200646973163e-01  -3.1570517293425188e-01  -2.3739424872279113e-01  -1.2896462471037135e-01  -3.9963206039424819e-02  -3.4960940506572500e-03  9.4490234448599915e-04  -7.7296409239242659e-05  2.8084227207892608e-03  -1.8518051337850783e-02  -6.1625357895784556e-02  -1.1642306973744466e-01  -1.7580967149640106e-01  -2.2642576761551000e-01  -2.5984660715961222e-01  -2.7587983927463411e-01  -2.7980593575330254e-01  -2.7861416759593671e-01  -2.7759408237789868e-01  -2.7858191478233563e-01  -2.8100285909920525e-01  -2.8375214432274698e-01  -2.8616805995271960e-01  -2.8806846456707913e-01  -2.8950745756806617e-01  -2.9058824357143614e-01  -2.9135878779126256e-01  -2.9175111596019820e-01  -2.9158097286731816e-01  -2.9077502660789617e-01  -2.9013755871330948e-01  -2.9247015875630072e-01  -3.0166513638997061e-01  -3.1583774966942491e-01  -3.1845246306456737e-01  -2.8271234762509423e-01  -1.9602854445281359e-01  -8.5041907483187976e-02  -1.5010161043021218e-02  7.1282431454436042e-04  2.5311883917708170e-04  3.3013755896314635e-03  -2.4544384310788103e-02  -7.3598253281470141e-02  -1.2798899284483906e-01  -1.7955015770766256e-01  -2.1690226843634192e-01  -2.3677383946483782e-01  -2.4302572130479272e-01  -2.4290381904348082e-01  -2.4258069595363430e-01  -2.4438023943404796e-01  -2.4754698055374344e-01  -2.5076177146081702e-01  -2.5340579543915909e-01  -2.5547495766774342e-01  -2.5716162067533649e-01  -2.5863795871959805e-01  -2.6001141245861531e-01  -2.6134700303686459e-01  -2.6266111424521882e-01  -2.6382726972918252e-01  -2.6443457323631464e-01  -2.6386963563234483e-01  -2.6230154337003808e-01  -2.6279645042254773e-01  -2.7104231212570035e-01  -2.8552490699281735e-01  -2.8483560833067051e-01  -2.3771977201560207e-01  -1.3845900121048174e-01  -3.8077469945694498e-02  1.7939296763515456e-03  -3.2155769162816466e-04  3.5308346341815879e-03  -2.7386019468043987e-02  -7.7461960177867703e-02  -1.2694843697297464e-01  -1.6862223587215369e-01  -1.9445385321672620e-01  -2.0536497525576675e-01  -2.0750064902555132e-01  -2.0783645238451637e-01  -2.0991491919292055e-01  -2.1342217260276530e-01  -2.1689905976589710e-01  -2.1968581112838759e-01  -2.2188510475652740e-01  -2.2377151717964883e-01  -2.2550687022810259e-01  -2.2715034882169652e-01  -2.2872888633269159e-01  -2.3027824656990842e-01  -2.3185599559182565e-01  -2.3352112094264255e-01  -2.3521011850218204e-01  -2.3643554143548431e-01  -2.3614924893309519e-01  -2.3402102629871918e-01  -2.3378674277180586e-01  -2.4268259847267068e-01  -2.5632723725591294e-01  -2.4495105889069890e-01  -1.7787134191744555e-01  -7.0169410607452937e-02  -5.7950460230771607e-03  2.7568373378993705e-04  3.5539777497719197e-03  -2.6584567130741820e-02  -7.3544130370516950e-02  -1.1576250672524110e-01  -1.4791390226745429e-01  -1.6532319319275426e-01  -1.7154010814893456e-01  -1.7313874212496952e-01  -1.7524157924257541e-01  -1.7883397255114927e-01  -1.8260094763234228e-01  -1.8565994523733229e-01  -1.8809466170265265e-01  -1.9024594047179857e-01  -1.9229056597240110e-01  -1.9425918413524945e-01  -1.9614782853951415e-01  -1.9796158090337579e-01  -1.9971432881523538e-01  -2.0142359279102370e-01  -2.0312850834761231e-01  -2.0491414446692946e-01  -2.0680397585873461e-01  -2.0826826034765547e-01  -2.0783659693266904e-01  -2.0506748158709504e-01  -2.0546244046624673e-01  -2.1666350856843061e-01  -2.2515239102975934e-01  -1.9261969211632504e-01  -1.0114501987841182e-01  -1.7964697818595027e-02  3.9846243066086421e-03  3.4106312602154632e-03  -2.2614974533093843e-02  -6.3562023043734331e-02  -9.7812973010113199e-02  -1.2191587949861520e-01  -1.3388536346742949e-01  -1.3825749572984383e-01  -1.4067939143323707e-01  -1.4409736428952821e-01  -1.4808723194078982e-01  -1.5153262594766378e-01  -1.5427060239400048e-01  -1.5666256107600976e-01  -1.5894516070190498e-01  -1.6115840351743768e-01  -1.6329588910955029e-01  -1.6536893142033779e-01  -1.6739834331763448e-01  -1.6939714496438821e-01  -1.7136144540203335e-01  -1.7327058154956021e-01  -1.7511683290166483e-01  -1.7698081020717812e-01  -1.7894347133567684e-01  -1.8031495997300823e-01  -1.7913743237133900e-01  -1.7585055612934897e-01  -1.7916066160114980e-01  -1.9187799270587039e-01  -1.8469207371324983e-01  -1.1924852154511609e-01  -2.6524527936579174e-02  8.7657957113183860e-03  3.1168393847209506e-03  -1.6445966303298403e-02  -4.9617132361315305e-02  -7.6143495442688280e-02  -9.3829214313955481e-02  -1.0252605084255866e-01  -1.0643843957402618e-01  -1.0969885829489973e-01  -1.1361617177387871e-01  -1.1740856844995788e-01  -1.2049960886655982e-01  -1.2309944449252393e-01  -1.2552430416393942e-01  -1.2787370417198737e-01  -1.3015098508340053e-01  -1.3237628657449088e-01  -1.3458502863255994e-01  -1.3680558014316527e-01  -1.3904995652411051e-01  -1.4131100659484058e-01  -1.4355783768110886e-01  -1.4573274385124724e-01  -1.4778417433874719e-01  -1.4979360647814063e-01  -1.5182322037258242e-01  -1.5269980424883564e-01  -1.5013785722750772e-01  -1.4787393884136613e-01  -1.5638679984285825e-01  -1.6228125358567613e-01  -1.2236580182682871e-01  -3.3220078721528781e-02  1.1046119965016534e-02  2.6501665068389127e-03  -9.1098434463665959e-03  -3.3524517981247164e-02  -5.2940995022444662e-02  -6.5515294191348661e-02  -7.2198788929244154e-02  -7.6039225438375352e-02  -7.9680508757203880e-02  -8.3503726919420956e-02  -8.6899643785915762e-02  -8.9702792656824709e-02  -9.2196916310183091e-02  -9.4578283881007558e-02  -9.6891626740797029e-02  -9.9162159030915964e-02  -1.0143699421372253e-01  -1.0376006239020510e-01  -1.0616010455874578e-01  -1.0864917112684920e-01  -1.1122028137307424e-01  -1.1384207412191114e-01  -1.1645547011539753e-01  -1.1897020359263526e-01  -1.2130913786788121e-01  -1.2358994874721982e-01  -1.2563963840907566e-01  -1.2530532721904539e-01  -1.2161816034989623e-01  -1.2441230933217313e-01  -1.3433759582305158e-01  -1.1419365355463457e-01  -3.7694935248971495e-02  1.0558474741978208e-02  1.9846591663136826e-03  -1.5180587203957156e-03  -1.6616491494940863e-02  -2.9516359896688413e-02  -3.7821084787250554e-02  -4.3052993508635659e-02  -4.6760822128721326e-02  -5.0328828304244601e-02  -5.3731185346341970e-02  -5.6666584961507276e-02  -5.9180955102385156e-02  -6.1497172215683543e-02  -6.3731663103091640e-02  -6.5931085578783022e-02  -6.8147561548783070e-02  -7.0439807405178481e-02  -7.2854438438461594e-02  -7.5422497059935367e-02  -7.8158920682946761e-02  -8.1060575539533733e-02  -8.4099917681522821e-02  -8.7216997369510010e-02  -9.0323982565944247e-02  -9.3299333947277907e-02  -9.6073120039824822e-02  -9.8791948294837520e-02  -1.0046920815363898e-01  -9.8159679992855686e-02  -9.7268585380871186e-02  -1.0663201356418073e-01  -1.0015987816479237e-01  -3.9346028444964966e-02  8.8535867937506851e-03  9.4129089004541704e-04  5.5684562357480811e-03  3.6114545946230051e-04  -6.5524877426321564e-03  -1.0969442078040495e-02  -1.4900955603877133e-02  -1.8270434889041443e-02  -2.1453313906882963e-02  -2.4269942219205497e-02  -2.6698999373362238e-02  -2.8867220112016246e-02  -3.0914224317036474e-02  -3.2915911927942534e-02  -3.4938006049361578e-02  -3.7050802271164279e-02  -3.9319471430567771e-02  -4.1796058724969005e-02  -4.4517931221403684e-02  -4.7505351571318730e-02  -5.0759840214655044e-02  -5.4261408780660179e-02  -5.7956911350836277e-02  -6.1754884642544097e-02  -6.5546862378330392e-02  -6.9180356260779050e-02  -7.2653603025903041e-02  -7.5853627739281754e-02  -7.6048526636296146e-02  -7.4200091413994113e-02  -8.1852051897713551e-02  -8.4080779810817421e-02  -3.8304889393596442e-02  6.9049145091847142e-03  -2.6969064940514506e-04  1.1802375900530515e-02  1.6767952683718407e-02  1.5759751281596953e-02  1.5091682389385056e-02  1.2587628191177246e-02  9.6804649488916664e-03  7.0286836267055347e-03  4.8741316556466180e-03  3.0202783470710398e-03  1.2851791947926447e-03  -3.9589993946363076e-04  -2.0792594245821233e-03  -3.8509043283114163e-03  -5.7968842243978028e-03  -7.9900411154711134e-03  -1.0490900654557711e-02  -1.3345788173386405e-02  -1.6583949233073467e-02  -2.0214420914360452e-02  -2.4223832720344368e-02  -2.8571018275570119e-02  -3.3171705161482545e-02  -3.7914864128155625e-02  -4.2671909943898592e-02  -4.7262574390218706e-02  -5.1808359230643697e-02  -5.4685124238750861e-02  -5.4006111958363370e-02  -6.0524578705203703e-02  -6.8253021933777441e-02  -3.5310480062375617e-02  5.2336494569546234e-03  -1.5781571776082039e-03  1.6801258324999478e-02  3.2190879246597172e-02  3.7358589112151994e-02  4.0451892877824691e-02  3.9713569074524183e-02  3.7377263787744412e-02  3.5277357752414931e-02  3.3806911952997072e-02  3.2601905236965843e-02  3.1390325022372469e-02  3.0153577302783355e-02  2.8862471239604184e-02  2.7415440340921745e-02  2.5706540672120068e-02  2.3649303075797330e-02  2.1171527087602768e-02  1.8213826622903811e-02  1.4734198456921118e-02  1.0711983170722233e-02  6.1515391034562845e-03  1.0848035326867420e-03  -4.4238458822876891e-03  -1.0266106709395192e-02  -1.6333918130474391e-02  -2.2407657213524789e-02  -2.8446720959877391e-02  -3.3897891385254793e-02  -3.5716588693289690e-02  -4.2322299472246937e-02  -5.3725370228452564e-02  -3.1202485585997405e-02  3.9306474148493283e-03  -2.9205550559364317e-03  2.0221744710718550e-02  4.6119057953428577e-02  5.8095663428010078e-02  6.5154622233348225e-02  6.6637798473703727e-02  6.5012066690097528e-02  6.3346056715602020e-02  6.2491977515407138e-02  6.1997652358533870e-02  6.1434076007996302e-02  6.0751974342660456e-02  5.9951136131495136e-02  5.8928139071458413e-02  5.7551086325712791e-02  5.5710762551431786e-02  5.3317984866827428e-02  5.0299103561697228e-02  4.6598188929016342e-02  4.2180832263806915e-02  3.7038055123356964e-02  3.1188591373519429e-02  2.4679979094831640e-02  1.7591897174082265e-02  1.0044444708887955e-02  2.1993936014661928e-03  -5.6441025934222009e-03  -1.3604890718050397e-02  -1.8674646186201425e-02  -2.6642005669520345e-02  -4.0995299921822742e-02  -2.6780148544548556e-02  2.9924029911588090e-03  -4.1202469233562111e-03  2.1821527514595353e-02  5.7765633597170102e-02  7.7565874786853478e-02  8.9028200563280133e-02  9.3337994564770779e-02  9.2811983777249960e-02  9.1495452914768849e-02  9.1128189183361921e-02  9.1360599113758129e-02  9.1565459167453470e-02  9.1554923967020724e-02  9.1332693318719765e-02  9.0818177898957103e-02  8.9863015892244491e-02  8.8325814905012484e-02  8.6091863580900804e-02  8.3067770696505380e-02  7.9180586208355289e-02  7.4379314715197084e-02  6.8639604097930185e-02  6.1960567523003336e-02  5.4368507532515792e-02  4.5903441942202250e-02  3.6704881696093671e-02  2.6881567685211574e-02  1.6875472357297652e-02  6.3376824686933661e-03  -2.4531174332377407e-03  -1.2973669856019752e-02  -3.0251878755219442e-02  -2.2774702262999012e-02  2.3036824579642273e-03  -4.8938654239088428e-03  2.1535441996836251e-02  6.5962452318508183e-02  9.4825458532794560e-02  1.1156853846904126e-01  1.1943157283923762e-01  1.2063914264786377e-01  1.1968774437813420e-01  1.1956367020800970e-01  1.2044862646964349e-01  1.2156148564518547e-01  1.2244390999542556e-01  1.2299211663029762e-01  1.2313737908678690e-01  1.2273608404490177e-01  1.2162161101596572e-01  1.1964815832406869e-01  1.1669832953376151e-01  1.1268068851260722e-01  1.0752647652090512e-01  1.0119366306731715e-01  9.3655029997064168e-02  8.4904797841369103e-02  7.4955883574211360e-02  6.3946934033736871e-02  5.1991440900938393e-02  3.9501468350060839e-02  2.6172964044180246e-02  1.3261651281118302e-02  -8.8072300725828699e-04  -2.1665108363635305e-02  -1.9987777994091543e-02  1.7197037038026396e-03  -4.8897702431811227e-03  1.9467842038689103e-02  6.9238814630330464e-02  1.0826630574739342e-01  1.3171178752571444e-01  1.4416420898632060e-01  1.4826173549911265e-01  1.4828105150768714e-01  1.4833263145214165e-01  1.4967755352392487e-01  1.5170306555328497e-01  1.5365198676819464e-01  1.5517630764251578e-01  1.5614014680427515e-01  1.5641120771877703e-01  1.5582139518453580e-01  1.5420321604669576e-01  1.5141217213487004e-01  1.4733305967833801e-01  1.4187403361039669e-01  1.3496790256860947e-01  1.2654923697072532e-01  1.1658385006011755e-01  1.0507075621829594e-01  9.2155712720166358e-02  7.7919903982669764e-02  6.2738775497825972e-02  4.6231219903229794e-02  2.8773518724074177e-02  1.0008041267453504e-02  -1.5387350799346300e-02  -1.9308584032760302e-02  9.5900667484452801e-04  -3.9746713407171437e-03  1.5882464994740882e-02  6.6256331236634616e-02  1.1548865319874034e-01  1.4764085764561652e-01  1.6603999010891013e-01  1.7432995765174855e-01  1.7644025830124407e-01  1.7698465829499416e-01  1.7861867688345079e-01  1.8146535529188609e-01  1.8466944797595963e-01  1.8752721395520169e-01  1.8967518401337863e-01  1.9090978926792407e-01  1.9105954753795873e-01  1.8995641064789306e-01  1.8744481713233205e-01  1.8339370293218946e-01  1.7768806731156725e-01  1.7022859317851299e-01  1.6092076222068485e-01  1.4972458840045694e-01  1.3664225458344673e-01  1.2178782710201569e-01  1.0519535402973926e-01  8.7131604006530874e-02  6.6995096412357791e-02  4.4352764347407224e-02  2.0038618189523953e-02  -1.1322442359990251e-02  -2.1677317861628475e-02  -2.8413048909102756e-04  -2.5030617029850525e-03  1.1085463499517681e-02  5.6830813009708117e-02  1.1398141210909150e-01  1.5660314407813922e-01  1.8307697759029046e-01  1.9750590976895643e-01  2.0383074107452745e-01  2.0634839757015686e-01  2.0865677832900364e-01  2.1212295777552373e-01  2.1637712785883548e-01  2.2057983104319190e-01  2.2407971935929583e-01  2.2649046712012652e-01  2.2756858088748735e