<?xml version="1.0"?>
<VTKFile type="UnstructuredGrid"  version="0.1"  >
<UnstructuredGrid>
<Piece  NumberOfPoints="4225" NumberOfCells="4096">
<Points>
<DataArray  type="Float64"  NumberOfComponents="3"  format="ascii">0 0 0  0.015625 0 0  0.03125 0 0  0.046875 0 0  0.0625 0 0  0.078125 0 0  0.09375 0 0  0.109375 0 0  0.125 0 0  0.140625 0 0  0.15625 0 0  0.171875 0 0  0.1875 0 0  0.203125 0 0  0.21875 0 0  0.234375 0 0  0.25 0 0  0.265625 0 0  0.28125 0 0  0.296875 0 0  0.3125 0 0  0.328125 0 0  0.34375 0 0  0.359375 0 0  0.375 0 0  0.390625 0 0  0.40625 0 0  0.421875 0 0  0.4375 0 0  0.453125 0 0  0.46875 0 0  0.484375 0 0  0.5 0 0  0.515625 0 0  0.53125 0 0  0.546875 0 0  0.5625 0 0  0.578125 0 0  0.59375 0 0  0.609375 0 0  0.625 0 0  0.640625 0 0  0.65625 0 0  0.671875 0 0  0.6875 0 0  0.703125 0 0  0.71875 0 0  0.734375 0 0  0.75 0 0  0.765625 0 0  0.78125 0 0  0.796875 0 0  0.8125 0 0  0.828125 0 0  0.84375 0 0  0.859375 0 0  0.875 0 0  0.890625 0 0  0.90625 0 0  0.921875 0 0  0.9375 0 0  0.953125 0 0  0.96875 0 0  0.984375 0 0  1 0 0  0 0.015625 0  0.015625 0.015625 0  0.03125 0.015625 0  0.046875 0.015625 0  0.0625 0.015625 0  0.078125 0.015625 0  0.09375 0.015625 0  0.109375 0.015625 0  0.125 0.015625 0  0.140625 0.015625 0  0.15625 0.015625 0  0.171875 0.015625 0  0.1875 0.015625 0  0.203125 0.015625 0  0.21875 0.015625 0  0.234375 0.015625 0  0.25 0.015625 0  0.265625 0.015625 0  0.28125 0.015625 0  0.296875 0.015625 0  0.3125 0.015625 0  0.328125 0.015625 0  0.34375 0.015625 0  0.359375 0.015625 0  0.375 0.015625 0  0.390625 0.015625 0  0.40625 0.015625 0  0.421875 0.015625 0  0.4375 0.015625 0  0.453125 0.015625 0  0.46875 0.015625 0  0.484375 0.015625 0  0.5 0.015625 0  0.515625 0.015625 0  0.53125 0.015625 0  0.546875 0.015625 0  0.5625 0.015625 0  0.578125 0.015625 0  0.59375 0.015625 0  0.609375 0.015625 0  0.625 0.015625 0  0.640625 0.015625 0  0.65625 0.015625 0  0.671875 0.015625 0  0.6875 0.015625 0  0.703125 0.015625 0  0.71875 0.015625 0  0.734375 0.015625 0  0.75 0.015625 0  0.765625 0.015625 0  0.78125 0.015625 0  0.796875 0.015625 0  0.8125 0.015625 0  0.828125 0.015625 0  0.84375 0.015625 0  0.859375 0.015625 0  0.875 0.015625 0  0.890625 0.015625 0  0.90625 0.015625 0  0.921875 0.015625 0  0.9375 0.015625 0  0.953125 0.015625 0  0.96875 0.015625 0  0.984375 0.015625 0  1 0.015625 0  0 0.03125 0  0.015625 0.03125 0  0.03125 0.03125 0  0.046875 0.03125 0  0.0625 0.03125 0  0.078125 0.03125 0  0.09375 0.03125 0  0.109375 0.03125 0  0.125 0.03125 0  0.140625 0.03125 0  0.15625 0.03125 0  0.171875 0.03125 0  0.1875 0.03125 0  0.203125 0.03125 0  0.21875 0.03125 0  0.234375 0.03125 0  0.25 0.03125 0  0.265625 0.03125 0  0.28125 0.03125 0  0.296875 0.03125 0  0.3125 0.03125 0  0.328125 0.03125 0  0.34375 0.03125 0  0.359375 0.03125 0  0.375 0.03125 0  0.390625 0.03125 0  0.40625 0.03125 0  0.421875 0.03125 0  0.4375 0.03125 0  0.453125 0.03125 0  0.46875 0.03125 0  0.484375 0.03125 0  0.5 0.03125 0  0.515625 0.03125 0  0.53125 0.03125 0  0.546875 0.03125 0  0.5625 0.03125 0  0.578125 0.03125 0  0.59375 0.03125 0  0.609375 0.03125 0  0.625 0.03125 0  0.640625 0.03125 0  0.65625 0.03125 0  0.671875 0.03125 0  0.6875 0.03125 0  0.703125 0.03125 0  0.71875 0.03125 0  0.734375 0.03125 0  0.75 0.03125 0  0.765625 0.03125 0  0.78125 0.03125 0  0.796875 0.03125 0  0.8125 0.03125 0  0.828125 0.03125 0  0.84375 0.03125 0  0.859375 0.03125 0  0.875 0.03125 0  0.890625 0.03125 0  0.90625 0.03125 0  0.921875 0.03125 0  0.9375 0.03125 0  0.953125 0.03125 0  0.96875 0.03125 0  0.984375 0.03125 0  1 0.03125 0  0 0.046875 0  0.015625 0.046875 0  0.03125 0.046875 0  0.046875 0.046875 0  0.0625 0.046875 0  0.078125 0.046875 0  0.09375 0.046875 0  0.109375 0.046875 0  0.125 0.046875 0  0.140625 0.046875 0  0.15625 0.046875 0  0.171875 0.046875 0  0.1875 0.046875 0  0.203125 0.046875 0  0.21875 0.046875 0  0.234375 0.046875 0  0.25 0.046875 0  0.265625 0.046875 0  0.28125 0.046875 0  0.296875 0.046875 0  0.3125 0.046875 0  0.328125 0.046875 0  0.34375 0.046875 0  0.359375 0.046875 0  0.375 0.046875 0  0.390625 0.046875 0  0.40625 0.046875 0  0.421875 0.046875 0  0.4375 0.046875 0  0.453125 0.046875 0  0.46875 0.046875 0  0.484375 0.046875 0  0.5 0.046875 0  0.515625 0.046875 0  0.53125 0.046875 0  0.546875 0.046875 0  0.5625 0.046875 0  0.578125 0.046875 0  0.59375 0.046875 0  0.609375 0.046875 0  0.625 0.046875 0  0.640625 0.046875 0  0.65625 0.046875 0  0.671875 0.046875 0  0.6875 0.046875 0  0.703125 0.046875 0  0.71875 0.046875 0  0.734375 0.046875 0  0.75 0.046875 0  0.765625 0.046875 0  0.78125 0.046875 0  0.796875 0.046875 0  0.8125 0.046875 0  0.828125 0.046875 0  0.84375 0.046875 0  0.859375 0.046875 0  0.875 0.046875 0  0.890625 0.046875 0  0.90625 0.046875 0  0.921875 0.046875 0  0.9375 0.046875 0  0.953125 0.046875 0  0.96875 0.046875 0  0.984375 0.046875 0  1 0.046875 0  0 0.0625 0  0.015625 0.0625 0  0.03125 0.0625 0  0.046875 0.0625 0  0.0625 0.0625 0  0.078125 0.0625 0  0.09375 0.0625 0  0.109375 0.0625 0  0.125 0.0625 0  0.140625 0.0625 0  0.15625 0.0625 0  0.171875 0.0625 0  0.1875 0.0625 0  0.203125 0.0625 0  0.21875 0.0625 0  0.234375 0.0625 0  0.25 0.0625 0  0.265625 0.0625 0  0.28125 0.0625 0  0.296875 0.0625 0  0.3125 0.0625 0  0.328125 0.0625 0  0.34375 0.0625 0  0.359375 0.0625 0  0.375 0.0625 0  0.390625 0.0625 0  0.40625 0.0625 0  0.421875 0.0625 0  0.4375 0.0625 0  0.453125 0.0625 0  0.46875 0.0625 0  0.484375 0.0625 0  0.5 0.0625 0  0.515625 0.0625 0  0.53125 0.0625 0  0.546875 0.0625 0  0.5625 0.0625 0  0.578125 0.0625 0  0.59375 0.0625 0  0.609375 0.0625 0  0.625 0.0625 0  0.640625 0.0625 0  0.65625 0.0625 0  0.671875 0.0625 0  0.6875 0.0625 0  0.703125 0.0625 0  0.71875 0.0625 0  0.734375 0.0625 0  0.75 0.0625 0  0.765625 0.0625 0  0.78125 0.0625 0  0.796875 0.0625 0  0.8125 0.0625 0  0.828125 0.0625 0  0.84375 0.0625 0  0.859375 0.0625 0  0.875 0.0625 0  0.890625 0.0625 0  0.90625 0.0625 0  0.921875 0.0625 0  0.9375 0.0625 0  0.953125 0.0625 0  0.96875 0.0625 0  0.984375 0.0625 0  1 0.0625 0  0 0.078125 0  0.015625 0.078125 0  0.03125 0.078125 0  0.046875 0.078125 0  0.0625 0.078125 0  0.078125 0.078125 0  0.09375 0.078125 0  0.109375 0.078125 0  0.125 0.078125 0  0.140625 0.078125 0  0.15625 0.078125 0  0.171875 0.078125 0  0.1875 0.078125 0  0.203125 0.078125 0  0.21875 0.078125 0  0.234375 0.078125 0  0.25 0.078125 0  0.265625 0.078125 0  0.28125 0.078125 0  0.296875 0.078125 0  0.3125 0.078125 0  0.328125 0.078125 0  0.34375 0.078125 0  0.359375 0.078125 0  0.375 0.078125 0  0.390625 0.078125 0  0.40625 0.078125 0  0.421875 0.078125 0  0.4375 0.078125 0  0.453125 0.078125 0  0.46875 0.078125 0  0.484375 0.078125 0  0.5 0.078125 0  0.515625 0.078125 0  0.53125 0.078125 0  0.546875 0.078125 0  0.5625 0.078125 0  0.578125 0.078125 0  0.59375 0.078125 0  0.609375 0.078125 0  0.625 0.078125 0  0.640625 0.078125 0  0.65625 0.078125 0  0.671875 0.078125 0  0.6875 0.078125 0  0.703125 0.078125 0  0.71875 0.078125 0  0.734375 0.078125 0  0.75 0.078125 0  0.765625 0.078125 0  0.78125 0.078125 0  0.796875 0.078125 0  0.8125 0.078125 0  0.828125 0.078125 0  0.84375 0.078125 0  0.859375 0.078125 0  0.875 0.078125 0  0.890625 0.078125 0  0.90625 0.078125 0  0.921875 0.078125 0  0.9375 0.078125 0  0.953125 0.078125 0  0.96875 0.078125 0  0.984375 0.078125 0  1 0.078125 0  0 0.09375 0  0.015625 0.09375 0  0.03125 0.09375 0  0.046875 0.09375 0  0.0625 0.09375 0  0.078125 0.09375 0  0.09375 0.09375 0  0.109375 0.09375 0  0.125 0.09375 0  0.140625 0.09375 0  0.15625 0.09375 0  0.171875 0.09375 0  0.1875 0.09375 0  0.203125 0.09375 0  0.21875 0.09375 0  0.234375 0.09375 0  0.25 0.09375 0  0.265625 0.09375 0  0.28125 0.09375 0  0.296875 0.09375 0  0.3125 0.09375 0  0.328125 0.09375 0  0.34375 0.09375 0  0.359375 0.09375 0  0.375 0.09375 0  0.390625 0.09375 0  0.40625 0.09375 0  0.421875 0.09375 0  0.4375 0.09375 0  0.453125 0.09375 0  0.46875 0.09375 0  0.484375 0.09375 0  0.5 0.09375 0  0.515625 0.09375 0  0.53125 0.09375 0  0.546875 0.09375 0  0.5625 0.09375 0  0.578125 0.09375 0  0.59375 0.09375 0  0.609375 0.09375 0  0.625 0.09375 0  0.640625 0.09375 0  0.65625 0.09375 0  0.671875 0.09375 0  0.6875 0.09375 0  0.703125 0.09375 0  0.71875 0.09375 0  0.734375 0.09375 0  0.75 0.09375 0  0.765625 0.09375 0  0.78125 0.09375 0  0.796875 0.09375 0  0.8125 0.09375 0  0.828125 0.09375 0  0.84375 0.09375 0  0.859375 0.09375 0  0.875 0.09375 0  0.890625 0.09375 0  0.90625 0.09375 0  0.921875 0.09375 0  0.9375 0.09375 0  0.953125 0.09375 0  0.96875 0.09375 0  0.984375 0.09375 0  1 0.09375 0  0 0.109375 0  0.015625 0.109375 0  0.03125 0.109375 0  0.046875 0.109375 0  0.0625 0.109375 0  0.078125 0.109375 0  0.09375 0.109375 0  0.109375 0.109375 0  0.125 0.109375 0  0.140625 0.109375 0  0.15625 0.109375 0  0.171875 0.109375 0  0.1875 0.109375 0  0.203125 0.109375 0  0.21875 0.109375 0  0.234375 0.109375 0  0.25 0.109375 0  0.265625 0.109375 0  0.28125 0.109375 0  0.296875 0.109375 0  0.3125 0.109375 0  0.328125 0.109375 0  0.34375 0.109375 0  0.359375 0.109375 0  0.375 0.109375 0  0.390625 0.109375 0  0.40625 0.109375 0  0.421875 0.109375 0  0.4375 0.109375 0  0.453125 0.109375 0  0.46875 0.109375 0  0.484375 0.109375 0  0.5 0.109375 0  0.515625 0.109375 0  0.53125 0.109375 0  0.546875 0.109375 0  0.5625 0.109375 0  0.578125 0.109375 0  0.59375 0.109375 0  0.609375 0.109375 0  0.625 0.109375 0  0.640625 0.109375 0  0.65625 0.109375 0  0.671875 0.109375 0  0.6875 0.109375 0  0.703125 0.109375 0  0.71875 0.109375 0  0.734375 0.109375 0  0.75 0.109375 0  0.765625 0.109375 0  0.78125 0.109375 0  0.796875 0.109375 0  0.8125 0.109375 0  0.828125 0.109375 0  0.84375 0.109375 0  0.859375 0.109375 0  0.875 0.109375 0  0.890625 0.109375 0  0.90625 0.109375 0  0.921875 0.109375 0  0.9375 0.109375 0  0.953125 0.109375 0  0.96875 0.109375 0  0.984375 0.109375 0  1 0.109375 0  0 0.125 0  0.015625 0.125 0  0.03125 0.125 0  0.046875 0.125 0  0.0625 0.125 0  0.078125 0.125 0  0.09375 0.125 0  0.109375 0.125 0  0.125 0.12
[...]
<PointData  Scalars="v_sol"> 
<DataArray  type="Float64"  Name="v_sol"  format="ascii">1.2705494208814509e-21  1.2065947192084603e-06  2.3550795599250572e-06  3.4428719662057124e-06  4.4677509677167952e-06  5.4278826315127518e-06  6.3216259366354388e-06  7.1474743811830784e-06  7.9040331350461824e-06  8.5900132593373595e-06  9.2042330174895255e-06  9.7456227578728554e-06  1.0213231728283250e-05  1.0606236080039071e-05  1.0923947696644800e-05  1.1165823665526830e-05  1.1331476301770386e-05  1.1420683680330022e-05  1.1433400658822231e-05  1.1369770387465004e-05  1.1230136311172205e-05  1.1015054673844747e-05  1.0725307538183482e-05  1.0361916336428560e-05  9.9261559689598792e-06  9.4195694688246579e-06  8.8439832512099116e-06  8.2015229676864543e-06  7.4946299857699055e-06  6.7260785151475802e-06  5.8989934025714162e-06  5.0168686182211693e-06  4.0835864570826870e-06  3.1034374796704125e-06  2.0811412173664876e-06  1.0218676684025130e-06  -6.8740388326833324e-08  -1.1845442331124590e-06  -2.3188851712358932e-06  -3.4645595931826056e-06  -4.6137930969748326e-06  -5.7582136408696264e-06  -6.8888236913847669e-06  -7.9959713305008872e-06  -9.0693202840675230e-06  -1.0097818831694323e-05  -1.1069667556439704e-05  -1.1972285890992502e-05  -1.2792277415452742e-05  -1.3515393861683234e-05  -1.4126497780818923e-05  -1.4609523836926021e-05  -1.4947438705057128e-05  -1.5122199585768057e-05  -1.5114711420058954e-05  -1.4904783040414263e-05  -1.4471082819925913e-05  -1.3791095105571522e-05  -1.2841080393917605e-05  -1.1596046364995282e-05  -1.0029747751096710e-05  -8.1147661346414275e-06  -5.8228226764977395e-06  -3.1259117903825643e-06  -5.0821976835257998e-21  0.0000000000000000e+00  -5.9619594875922674e-06  -1.1636082676306053e-05  -1.7010001680046566e-05  -2.2073073349044161e-05  -2.6816300946921018e-05  -3.1231588081054922e-05  -3.5311486640955975e-05  -3.9049097694592228e-05  -4.2438046066916445e-05  -4.5472487576465084e-05  -4.8147133104195741e-05  -5.0457282033986553e-05  -5.2398861559936392e-05  -5.3968470105333116e-05  -5.5163423961632308e-05  -5.5981806691867167e-05  -5.6422521075475136e-05  -5.6485343499140921e-05  -5.6170980771071886e-05  -5.5481129379151530e-05  -5.4418537239447597e-05  -5.2987067998521703e-05  -5.1191767963919641e-05  -4.9038935745240741e-05  -4.6536194694056581e-05  -4.3692568235922144e-05  -4.0518558191866482e-05  -3.7026226190446948e-05  -3.3229278275481308e-05  -2.9143152817854849e-05  -2.4785111843790920e-05  -2.0174335895696962e-05  -1.5332022545505954e-05  -1.0281488685090453e-05  -5.0482767220606235e-06  3.3973518514839737e-07  5.8522187132212908e-06  1.1456276642692619e-05  1.7116319655869567e-05  2.2793938506230995e-05  2.8447771402093126e-05  3.4033366433972674e-05  3.9503038869346690e-05  4.4805723130582001e-05  4.9886819264286636e-05  5.4688033702375386e-05  5.9147214109622537e-05  6.3198178108420604e-05  6.6770535675906884e-05  6.9789505024792932e-05  7.2175721822540588e-05  7.3845041697023135e-05  7.4708336170898888e-05  7.4671282562378854e-05  7.3634149197698230e-05  7.1491578966876811e-05  6.8132377888903130e-05  6.3439323514701668e-05  5.7289027557672913e-05  4.9551936654384947e-05  4.0092697414574091e-05  2.8771533950584017e-05  1.5448915824788437e-05  8.4703294725430004e-21  -5.0821976835258020e-21  -2.6707316264484037e-05  -5.2118392566519762e-05  -7.6181714916538398e-05  -9.8852642034453131e-05  -1.2009154111128723e-04  -1.3986228398654303e-04  -1.5813147881214601e-04  -1.7486816083793190e-04  -1.9004371294232129e-04  -2.0363190727044238e-04  -2.1560901353760833e-04  -2.2595394709547199e-04  -2.3464844291428601e-04  -2.4167724821398320e-04  -2.4702832986648162e-04  -2.5069309450691398e-04  -2.5266662029509049e-04  -2.5294789984021764e-04  -2.5154009413769733e-04  -2.4845079757002944e-04  -2.4369231415049129e-04  -2.3728194527094024e-04  -2.2924228927035241e-04  -2.1960155318049689e-04  -2.0839387703473736e-04  -1.9565967115022184e-04  -1.8144596681406050e-04  -1.6580678082215255e-04  -1.4880349433731910e-04  -1.3050524654978029e-04  -1.1098934364018637e-04  -9.0341683562861094e-05  -6.8657197183927610e-05  -4.6040306328861047e-05  -2.2605399311673108e-05  1.5226754593977363e-06  2.6208097184239772e-05  5.1303541051697300e-05  7.6649626631830197e-05  1.0207434559037396e-04  1.2739246802094046e-04  1.5240492665510063e-04  1.7689817818471304e-04  2.0064354090533839e-04  2.2339650786663408e-04  2.4489603469876674e-04  2.6486380128169714e-04  2.8300344644446477e-04  2.9899977495047270e-04  3.1251793617559831e-04  3.2320257419088313e-04  3.3067694954876114e-04  3.3454203418685789e-04  3.3437558298904130e-04  3.2973118964218752e-04  3.2013734251567160e-04  3.0509651271598185e-04  2.8408434110035698e-04  2.5654906718558480e-04  2.2191151956152546e-04  1.7956641619581954e-04  1.2888683083221646e-04  6.9236442010416535e-05  -6.7762635780344012e-21  6.0967150375136611e-21  -5.9642754736625311e-05  -1.1637623617283656e-04  -1.7009439185081970e-04  -2.2070243548250832e-04  -2.6811365754809133e-04  -3.1224791259592855e-04  -3.5303071774427520e-04  -3.9039286207031253e-04  -4.2427034114939186e-04  -4.5460448896244893e-04  -4.8134223151738821e-04  -5.0443641912312383e-04  -5.2384621308494846e-04  -5.3953751314429321e-04  -5.5148341794821149e-04  -5.5966471424530643e-04  -5.6407039249754820e-04  -5.6469818778485893e-04  -5.6155514560450375e-04  -5.5465821262024669e-04  -5.4403485270760525e-04  -5.2972368883490292e-04  -5.1177517145270925e-04  -4.9025227416024490e-04  -4.6523121748953564e-04  -4.3680222170643817e-04  -4.0507028957671460e-04  -3.7015602008845701e-04  -3.3219645416343580e-04  -2.9134595342842712e-04  -2.4777711315616285e-04  -2.0168171052453902e-04  -1.5327168938159612e-04  -1.0278018274533368e-04  -5.0462574308384919e-05  3.4023997376143492e-06  5.8511507199525925e-05  1.1453583329795283e-04  1.7111954954510204e-04  2.2787863658190271e-04  2.8439955942353019e-04  3.4023789351310017e-04  3.9491689993808497e-04  4.4792604812744525e-04  4.9871948432527488e-04  5.4671444414012389e-04  5.9128960751864807e-04  6.3178339461833727e-04  6.6749220131501576e-04  6.9766857357101287e-04  7.2151932078014420e-04  7.3820356979685260e-04  7.4683076419773274e-04  7.4645861843570258e-04  7.3609104586270493e-04  7.1467609688586676e-04  6.8110397629359280e-04  6.3420527233499883e-04  5.7274965611919305e-04  4.9544556308799025e-04  4.0094187341491589e-04  2.8783354337845750e-04  1.5467432083281620e-04  9.4488402247656267e-21  -1.8088176627484325e-20  -1.0350355102992296e-04  -2.0193978738637568e-04  -2.9513603279740530e-04  -3.8293321340244054e-04  -4.6518351240656941e-04  -5.4174893400426303e-04  -6.1250058585115414e-04  -6.7731841527397330e-04  -7.3609128567226777e-04  -7.8871728873628020e-04  -8.3510421919404901e-04  -8.7517016427036336e-04  -9.0884417805790134e-04  -9.3606702263400758e-04  -9.5679196503993741e-04  -9.7098562375649280e-04  -9.7862886112312685e-04  -9.7971771991517713e-04  -9.7426440342197396e-04  -9.6229829910116679e-04  -9.4386704637123284e-04  -9.1903764943642178e-04  -8.8789763627186800e-04  -8.5055626506860642e-04  -8.0714577956876197e-04  -7.5782271482720536e-04  -7.0276925502485725e-04  -6.4219464503726829e-04  -5.7633665753528717e-04  -5.0546311746331679e-04  -4.2987348580830173e-04  -3.4990050463999688e-04  -2.6591190547064591e-04  -1.7831218305173902e-04  -8.7544436795544640e-05  5.9077179183989036e-06  1.0151816621783432e-04  1.9871623558218802e-04  2.9688456057520607e-04  3.9535686790847461e-04  4.9341567920307429e-04  5.9028992875288550e-04  6.8515249354101943e-04  7.7711763272814724e-04  8.6523833383690826e-04  9.4850356291933469e-04  1.0258354161558113e-03  1.0960861706526661e-03  1.1580352327852370e-03  1.2103859834401742e-03  1.2517625212307905e-03  1.2807063076731259e-03  1.2956727232551651e-03  1.2950275517701598e-03  1.2770434248050833e-03  1.2398962835055555e-03  1.1816619589412269e-03  1.1003130500984672e-03  9.9371641396778687e-04  8.5963180967839098e-04  6.9571258430912715e-04  4.9950965398310886e-04  2.6848007284460495e-04  -4.7433845046240795e-20  -1.5066443079203824e-21  -1.5704215547370973e-04  -3.0637556738086159e-04  -4.4774949557975258e-04  -5.8092870229256523e-04  -7.0569208680587667e-04  -8.2183184052394902e-04  -9.2915308031980913e-04  -1.0274738881147277e-03  -1.1166256626814067e-03  -1.1964537144795024e-03  -1.2668180454303360e-03  -1.3275942709862437e-03  -1.3786746550384793e-03  -1.4199692382416112e-03  -1.4514070473891404e-03  -1.4729373782703557e-03  -1.4845311476494223e-03  -1.4861823121500818e-03  -1.4779093532668046e-03  -1.4597568286980355e-03  -1.4317969908691647e-03  -1.3941314739866013e-03  -1.3468930513068954e-03  -1.2902474645622665e-03  -1.2243953276831899e-03  -1.1495741071218249e-03  -1.0660601812176075e-03  -9.7417098116833213e-04  -8.7426721628239561e-04  -7.6675518629375249e-04  -6.5208918362409315e-04  -5.3077398857860429e-04  -4.0336746056305299e-04  -2.7048322851287840e-04  -1.3279348382789496e-04  8.9681207884542131e-06  1.5400346308113311e-04  3.0144682997139128e-04  4.5036167955412443e-04  5.9973728255672089e-04  7.4848523935269209e-04  8.9543586855299903e-04  1.0393344631494377e-03  1.1788374101754232e-03  1.3125081699069526e-03  1.4388131107850883e-03  1.5561171965618678e-03  1.6626795227430216e-03  1.7566487003714392e-03  1.8360580867942278e-03  1.8988208656600908e-03  1.9427249826039202e-03  1.9654279498802661e-03  1.9644515442098121e-03  1.9371764399040954e-03  1.8808368480720320e-03  1.7925152786857673e-03  1.6691376141541809e-03  1.5074687895813585e-03  1.3041095151077832e-03  1.0554946048014122e-03  7.5789345991445324e-04  4.0741275034389401e-04  -1.4501474976882781e-19  7.3231859062568937e-20  -2.1905911471747707e-04  -4.2734466073561940e-04  -6.2451726948608774e-04  -8.1025500269162477e-04  -9.8425299317804861e-04  -1.1462232929848818e-03  -1.2958950325340079e-03  -1.4330148866665913e-03  -1.5573478158061082e-03  -1.6686780394717792e-03  -1.7668102035345269e-03  -1.8515707086955765e-03  -1.9228091754518342e-03  -1.9804000278990509e-03  -2.0242441844579382e-03  -2.0542708479269938e-03  -2.0704393904047045e-03  -2.0727413308634802e-03  -2.0612024047465755e-03  -2.0358847260902447e-03  -1.9968890434856816e-03  -1.9443570917896135e-03  -1.8784740419355358e-03  -1.7994710515394439e-03  -1.7076279192647680e-03  -1.6032758461354258e-03  -1.4868003071780147e-03  -1.3586440369444557e-03  -1.2193101326240666e-03  -1.0693652786016204e-03  -9.0944309646190304e-04  -7.4024762458138810e-04  -5.6255693158771894e-04  -3.7722686810716871e-04  -1.8519496135986228e-04  1.2515542697454365e-05  2.1479148484202423e-04  4.2042544068668217e-04  6.2811120631555621e-04  8.3643911623350808e-04  1.0438911882923460e-03  1.2488360901860270e-03  1.4495239220716585e-03  1.6440808099012305e-03  1.8305033041742112e-03  2.0066525790949346e-03  2.1702484276148412e-03  2.3188630486758802e-03  2.4499146243211656e-03  2.5606606864713296e-03  2.6481912764895347e-03  2.7094219057977511e-03  2.7410863337052282e-03  2.7397291906677895e-03  2.7016984934123971e-03  2.6231381253908107e-03  2.4999803948199889e-03  2.3279388347829618e-03  2.1025014713498226e-03  1.8189248352572099e-03  1.4722289760157260e-03  1.0571935415238966e-03  5.6835447790585831e-04  -1.0842021724855040e-19  -4.7475303133116856e-20  -2.8839617704343867e-04  -5.6258865009048181e-04  -8.2213986449883032e-04  -1.0666319463650119e-03  -1.2956672116966660e-03  -1.5088687421766897e-03  -1.7058811430642345e-03  -1.8863715293189374e-03  -2.0500307427324901e-03  -2.1965747853783710e-03  -2.3257464480929088e-03  -2.4373171131009852e-03  -2.5310887129059234e-03  -2.6068958316229308e-03  -2.6646079388852255e-03  -2.7041317498351916e-03  -2.7254137074182272e-03  -2.7284425852795893e-03  -2.7132522111388193e-03  -2.6799243116972875e-03  -2.6285914810238423e-03  -2.5594402750401500e-03  -2.4727144352507118e-03  -2.3687182452777804e-03  -2.2478200240995784e-03  -2.1104557601747498e-03  -1.9571328908838622e-03  -1.7884342319402996e-03  -1.6050220616284406e-03  -1.4076423649204905e-03  -1.1971292427108014e-03  -9.7440949158911173e-04  -7.4050735975497001e-04  -4.9654948485519060e-04  -2.4377001970394784e-04  1.6484047978019263e-05  2.8274737549481549e-04  5.5343053829208933e-04  8.2681408963501365e-04  1.1010424000797818e-03  1.3741172698411726e-03  1.6438913070899847e-03  1.9080610651968938e-03  2.1641599320071283e-03  2.4095507644264942e-03  2.6414182619813728e-03  2.8567610736713682e-03  3.0523836334883070e-03  3.2248877216153066e-03  3.3706637508082405e-03  3.4858817811842108e-03  3.5664822721339349e-03  3.6081665880740776e-03  3.6063872862105639e-03  3.5563382304779740e-03  3.4529445972536943e-03  3.2908528651433870e-03  3.0644209098127568e-03  2.7677083450380049e-03  2.3944672394014873e-03  1.9381332512073187e-03  1.3918170066263850e-03  7.4829515335504899e-04  3.1141619896272758e-19  7.2290715474665384e-20  -3.6393882417171353e-04  -7.0993435249993534e-04  -1.0374424745227297e-03  -1.3459413940313308e-03  -1.6349328991389351e-03  -1.9039436371359100e-03  -2.1525265024966416e-03  -2.3802621967327323e-03  -2.5867609848708450e-03  -2.7716646524746590e-03  -2.9346486569875587e-03  -3.0754244631656137e-03  -3.1937420520838917e-03  -3.2893925946924441e-03  -3.3622112831149459e-03  -3.4120803151794434e-03  -3.4389320297489537e-03  -3.4427521921724215e-03  -3.4235834306004915e-03  -3.3815288250457799e-03  -3.3167556519667039e-03  -3.2294992878698745e-03  -3.1200672760015951e-03  -2.9888435606710258e-03  -2.8362928941429648e-03  -2.6629654213784614e-03  -2.4695014482027234e-03  -2.2566363987524380e-03  -2.0252059683092739e-03  -1.7761514778670963e-03  -1.5105254370134280e-03  -1.2294973219328974e-03  -9.3435957556386670e-04  -6.2653383716104196e-04  -3.0757740873430493e-04  2.0810033951171070e-05  3.5677947791936017e-04  6.9832534897164267e-04  1.0432780188537481e-03  1.3892960351722175e-03  1.7338580654899921e-03  2.0742545469622643e-03  2.4075790328711984e-03  2.7307192275193345e-03  3.0403477011929350e-03  3.3329122773703202e-03  3.6046260851145648e-03  3.8514572707784747e-03  4.0691183649310446e-03  4.2530553030183452e-03  4.3984361020016844e-03  4.5001392004512791e-03  4.5527414767568908e-03  4.5505059696656644e-03  4.4873693374564445e-03  4.3569291061882412e-03  4.1524307714629633e-03  3.8667548266142953e-03  3.4924037823250141e-03  3.0214891999673058e-03  2.4457186590713747e-03  1.7563823961598793e-03  9.4433909168893074e-04  -4.3368086899420158e-19  8.3573092980106589e-20  -4.4461594228236724e-04  -8.6729313470988202e-04  -1.2673738120794812e-03  -1.6442255331782082e-03  -1.9972431256573375e-03  -2.3258506248322571e-03  -2.6295032948419942e-03  -2.9076897911296650e-03  -3.1599344977292108e-03  -3.3858000550079921e-03  -3.5848900824039442e-03  -3.7568520948443101e-03  -3.9013806091003317e-03  -4.0182204360014124e-03  -4.1071701552206387e-03  -4.1680857706281509e-03  -4.2008845456205663e-03  -4.2055490191774689e-03  -4.1821312045873232e-03  -4.1307569738029230e-03  -4.0516306312411944e-03  -3.9450396815565222e-03  -3.8113597965163432e-03  -3.6510599866169313e-03  -3.4647079835174619e-03  -3.2529758397588332e-03  -3.0166457525831270e-03  -2.7566161189917235e-03  -2.4739078294826206e-03  -2.1696708081955086e-03  -1.8451908074728347e-03  -1.5018964651171689e-03  -1.1413666328933796e-03  -7.6533798508777984e-04  -3.7571291619569917e-04  2.5432262937938817e-05  4.3583882095454303e-04  8.5305678398554666e-04  1.2744357858216382e-03  1.6971155800594383e-03  2.1180162038818753e-03  2.5338277830537922e-03  2.9409999677157731e-03  3.3357309886771253e-03  3.7139563241870752e-03  4.0713369676632144e-03  4.4032472876584872e-03  4.7047624725578613e-03  4.9706455542505900e-03  5.1953340074918190e-03  5.3729259250423281e-03  5.4971657731558718e-03  5.5614297377103569e-03  5.5587106782080033e-03  5.4816027145215039e-03  5.3222854782896054e-03  5.0725080643582443e-03  4.7235727122777529e-03  4.2663182250534930e-03  3.6911030807719519e-03  2.9877881012392062e-03  2.1457184073155168e-03  1.1537042293520603e-03  5.7789762761044418e-19  -7.4350134002231977e-20  -5.2940009397118854e-04  -1.0326614441590128e-03  -1.5090068392946583e-03  -1.9576877324693209e-03  -2.3779868017429762e-03  -2.7692205187493453e-03  -3.1307417952619867e-03  -3.4619427603497033e-03  -3.7622577036476338e-03  -4.0311662062752140e-03  -4.2681964710330946e-03  -4.4729288572557110e-03  -4.6449996222776516e-03  -4.7841048700024268e-03  -4.8900047068297127e-03  -4.9625276056643498e-03  -5.0015749795425208e-03  -5.0071259673420661e-03  -4.9792424349722796e-03  -4.9180741962994972e-03  -4.8238644588380463e-03  -4.6969554999172734e-03  -4.5377945796343704e-03  -4.3469400974316570e-03  -4.1250679996081580e-03  -3.8729784455027944e-03  -3.5916027404788264e-03  -3.2820105442062640e-03  -2.9454173630873138e-03  -2.5831923360044515e-03  -2.1968663228961109e-03  -1.7881403059827146e-03  -1.3588941137784505e-03  -9.1119547833160507e-04  -4.4730943643714625e-04  3.0291914140724115e-05  5.1891929211547630e-04  1.0156557322012472e-03  1.5173456948925272e-03  2.0205837744687680e-03  2.5217029930158989e-03  3.0167626681643876e-03  3.5015358422336501e-03  3.9714962605812386e-03  4.4218048872242044e-03  4.8472959462822901e-03  5.2424624785517874e-03  5.6014414036389343e-03  5.9179980796511718e-03  6.1855103545645496e-03  6.3969521061366169e-03  6.5448762706465267e-03  6.6213973647164179e-03  6.6181735086374314e-03  6.5263879631529071e-03  6.3367301929147749e-03  6.0393764660485487e-03  5.6239699861877187e-03  5.0796005253986977e-03  4.3947834778265129e-03  3.5574381815739473e-03  2.5548652645484317e-03  1.3737226758879597e-03  -5.9631119486702715e-19  1.0540722578027093e-19  -6.1730754287024376e-04  -1.2041208720914205e-03  -1.7595388460064098e-03  -2.2826926011055753e-03  -2.7727486874160219e-03  -3.2289122388221608e-03  -3.6504302327536051e-03  -4.0365948842475746e-03  -4.3867472083460781e-03  -4.7002807746586231e-03  -4.9766456698652293e-03  -5.2153526782258526e-03  -5.4159776865258611e-03  -5.5781663178729943e-03  -5.7016387978953880e-03  -5.7861950567759737e-03  -5.8317200708929611e-03  -5.8381894484092886e-03  -5.8056752638288413e-03  -5.7343521472332949e-03  -5.6245036345856881e-03  -5.4765287861169056e-03  -5.2909490803916557e-03  -5.0684155921837020e-03  -4.8097164627823406e-03  -4.5157846718085377e-03  -4.1877061200489467e-03  -3.8267280332231002e-03  -3.4342676969903417e-03  -3.0119215338826467e-03  -2.5614745332185516e-03  -2.0849100454174135e-03  -1.5844199524896372e-03  -1.0624152268304901e-03  -5.2153689078866133e-04  3.5332610183519495e-05  6.0505760766865519e-04  1.1842369702723969e-03  1.7691914097580188e-03  2.3559503193787378e-03  2.9402381302534673e-03  3.5174601715077343e-03  4.0826880198602342e-03  4.6306443244065552e-03  5.1556870925723959e-03  5.6517934236165078e-03  6.1125426767082176e-03  6.5310990615329917e-03  6.9001936406438980e-03  7.2121057343999305e-03  7.4586437213099085e-03  7.6311252288240247e-03  7.7203567118355508e-03  7.7166124178397674e-03  7.6096127379163669e-03  7.3885019399309373e-03  7.0418252723668442e-03  6.5575054111078925e-03  5.9228181942015644e-03  5.1243675489986845e-03  4.1480594628759042e-03  2.9790747892820993e-03  1.6018406287291865e-03  1.5414278214666864e-19  -2.7707355883234063e-19  -7.0739829772005687e-04  -1.3798382563359763e-03  -2.0162916039453064e-03  -2.6157661736429761e-03  -3.1773095851280742e-03  -3.7000129938320457e-03  -4.1830149501428469e-03  -4.6255054065320279e-03  -5.0267299036271572e-03  -5.3859939592741813e-03  -5.7026676785094871e-03  -5.9761905975839330e-03  -6.2060767718096653e-03  -6.3919201148585555e-03  -6.5333999959668572e-03  -6.6302871010258026e-03  -6.6824495635358187e-03  -6.6898593716937906e-03  -6.6525990583433609e-03  -6.5708686810601845e-03  -6.4449931002163877e-03  -6.2754295634381155e-03  -6.0627756054223714e-03  -5.8077772726079909e-03  -5.5113376826977983e-03  -5.1745259295094062e-03  -4.7985863440917452e-03  -4.3849481234878680e-03  -3.9352353389559653e-03  -3.451277335880968