<?xml version="1.0"?>
<VTKFile type="UnstructuredGrid"  version="0.1"  >
<UnstructuredGrid>
<Piece  NumberOfPoints="1089" NumberOfCells="1024">
<Points>
<DataArray  type="Float64"  NumberOfComponents="3"  format="ascii">0 0 0  0.03125 0 0  0.0625 0 0  0.09375 0 0  0.125 0 0  0.15625 0 0  0.1875 0 0  0.21875 0 0  0.25 0 0  0.28125 0 0  0.3125 0 0  0.34375 0 0  0.375 0 0  0.40625 0 0  0.4375 0 0  0.46875 0 0  0.5 0 0  0.53125 0 0  0.5625 0 0  0.59375 0 0  0.625 0 0  0.65625 0 0  0.6875 0 0  0.71875 0 0  0.75 0 0  0.78125 0 0  0.8125 0 0  0.84375 0 0  0.875 0 0  0.90625 0 0  0.9375 0 0  0.96875 0 0  1 0 0  0 0.03125 0  0.03125 0.03125 0  0.0625 0.03125 0  0.09375 0.03125 0  0.125 0.03125 0  0.15625 0.03125 0  0.1875 0.03125 0  0.21875 0.03125 0  0.25 0.03125 0  0.28125 0.03125 0  0.3125 0.03125 0  0.34375 0.03125 0  0.375 0.03125 0  0.40625 0.03125 0  0.4375 0.03125 0  0.46875 0.03125 0  0.5 0.03125 0  0.53125 0.03125 0  0.5625 0.03125 0  0.59375 0.03125 0  0.625 0.03125 0  0.65625 0.03125 0  0.6875 0.03125 0  0.71875 0.03125 0  0.75 0.03125 0  0.78125 0.03125 0  0.8125 0.03125 0  0.84375 0.03125 0  0.875 0.03125 0  0.90625 0.03125 0  0.9375 0.03125 0  0.96875 0.03125 0  1 0.03125 0  0 0.0625 0  0.03125 0.0625 0  0.0625 0.0625 0  0.09375 0.0625 0  0.125 0.0625 0  0.15625 0.0625 0  0.1875 0.0625 0  0.21875 0.0625 0  0.25 0.0625 0  0.28125 0.0625 0  0.3125 0.0625 0  0.34375 0.0625 0  0.375 0.0625 0  0.40625 0.0625 0  0.4375 0.0625 0  0.46875 0.0625 0  0.5 0.0625 0  0.53125 0.0625 0  0.5625 0.0625 0  0.59375 0.0625 0  0.625 0.0625 0  0.65625 0.0625 0  0.6875 0.0625 0  0.71875 0.0625 0  0.75 0.0625 0  0.78125 0.0625 0  0.8125 0.0625 0  0.84375 0.0625 0  0.875 0.0625 0  0.90625 0.0625 0  0.9375 0.0625 0  0.96875 0.0625 0  1 0.0625 0  0 0.09375 0  0.03125 0.09375 0  0.0625 0.09375 0  0.09375 0.09375 0  0.125 0.09375 0  0.15625 0.09375 0  0.1875 0.09375 0  0.21875 0.09375 0  0.25 0.09375 0  0.28125 0.09375 0  0.3125 0.09375 0  0.34375 0.09375 0  0.375 0.09375 0  0.40625 0.09375 0  0.4375 0.09375 0  0.46875 0.09375 0  0.5 0.09375 0  0.53125 0.09375 0  0.5625 0.09375 0  0.59375 0.09375 0  0.625 0.09375 0  0.65625 0.09375 0  0.6875 0.09375 0  0.71875 0.09375 0  0.75 0.09375 0  0.78125 0.09375 0  0.8125 0.09375 0  0.84375 0.09375 0  0.875 0.09375 0  0.90625 0.09375 0  0.9375 0.09375 0  0.96875 0.09375 0  1 0.09375 0  0 0.125 0  0.03125 0.125 0  0.0625 0.125 0  0.09375 0.125 0  0.125 0.125 0  0.15625 0.125 0  0.1875 0.125 0  0.21875 0.125 0  0.25 0.125 0  0.28125 0.125 0  0.3125 0.125 0  0.34375 0.125 0  0.375 0.125 0  0.40625 0.125 0  0.4375 0.125 0  0.46875 0.125 0  0.5 0.125 0  0.53125 0.125 0  0.5625 0.125 0  0.59375 0.125 0  0.625 0.125 0  0.65625 0.125 0  0.6875 0.125 0  0.71875 0.125 0  0.75 0.125 0  0.78125 0.125 0  0.8125 0.125 0  0.84375 0.125 0  0.875 0.125 0  0.90625 0.125 0  0.9375 0.125 0  0.96875 0.125 0  1 0.125 0  0 0.15625 0  0.03125 0.15625 0  0.0625 0.15625 0  0.09375 0.15625 0  0.125 0.15625 0  0.15625 0.15625 0  0.1875 0.15625 0  0.21875 0.15625 0  0.25 0.15625 0  0.28125 0.15625 0  0.3125 0.15625 0  0.34375 0.15625 0  0.375 0.15625 0  0.40625 0.15625 0  0.4375 0.15625 0  0.46875 0.15625 0  0.5 0.15625 0  0.53125 0.15625 0  0.5625 0.15625 0  0.59375 0.15625 0  0.625 0.15625 0  0.65625 0.15625 0  0.6875 0.15625 0  0.71875 0.15625 0  0.75 0.15625 0  0.78125 0.15625 0  0.8125 0.15625 0  0.84375 0.15625 0  0.875 0.15625 0  0.90625 0.15625 0  0.9375 0.15625 0  0.96875 0.15625 0  1 0.15625 0  0 0.1875 0  0.03125 0.1875 0  0.0625 0.1875 0  0.09375 0.1875 0  0.125 0.1875 0  0.15625 0.1875 0  0.1875 0.1875 0  0.21875 0.1875 0  0.25 0.1875 0  0.28125 0.1875 0  0.3125 0.1875 0  0.34375 0.1875 0  0.375 0.1875 0  0.40625 0.1875 0  0.4375 0.1875 0  0.46875 0.1875 0  0.5 0.1875 0  0.53125 0.1875 0  0.5625 0.1875 0  0.59375 0.1875 0  0.625 0.1875 0  0.65625 0.1875 0  0.6875 0.1875 0  0.71875 0.1875 0  0.75 0.1875 0  0.78125 0.1875 0  0.8125 0.1875 0  0.84375 0.1875 0  0.875 0.1875 0  0.90625 0.1875 0  0.9375 0.1875 0  0.96875 0.1875 0  1 0.1875 0  0 0.21875 0  0.03125 0.21875 0  0.0625 0.21875 0  0.09375 0.21875 0  0.125 0.21875 0  0.15625 0.21875 0  0.1875 0.21875 0  0.21875 0.21875 0  0.25 0.21875 0  0.28125 0.21875 0  0.3125 0.21875 0  0.34375 0.21875 0  0.375 0.21875 0  0.40625 0.21875 0  0.4375 0.21875 0  0.46875 0.21875 0  0.5 0.21875 0  0.53125 0.21875 0  0.5625 0.21875 0  0.59375 0.21875 0  0.625 0.21875 0  0.65625 0.21875 0  0.6875 0.21875 0  0.71875 0.21875 0  0.75 0.21875 0  0.78125 0.21875 0  0.8125 0.21875 0  0.84375 0.21875 0  0.875 0.21875 0  0.90625 0.21875 0  0.9375 0.21875 0  0.96875 0.21875 0  1 0.21875 0  0 0.25 0  0.03125 0.25 0  0.0625 0.25 0  0.09375 0.25 0  0.125 0.25 0  0.15625 0.25 0  0.1875 0.25 0  0.21875 0.25 0  0.25 0.25 0  0.28125 0.25 0  0.3125 0.25 0  0.34375 0.25 0  0.375 0.25 0  0.40625 0.25 0  0.4375 0.25 0  0.46875 0.25 0  0.5 0.25 0  0.53125 0.25 0  0.5625 0.25 0  0.59375 0.25 0  0.625 0.25 0  0.65625 0.25 0  0.6875 0.25 0  0.71875 0.25 0  0.75 0.25 0  0.78125 0.25 0  0.8125 0.25 0  0.84375 0.25 0  0.875 0.25 0  0.90625 0.25 0  0.9375 0.25 0  0.96875 0.25 0  1 0.25 0  0 0.28125 0  0.03125 0.28125 0  0.0625 0.28125 0  0.09375 0.28125 0  0.125 0.28125 0  0.15625 0.28125 0  0.1875 0.28125 0  0.21875 0.28125 0  0.25 0.28125 0  0.28125 0.28125 0  0.3125 0.28125 0  0.34375 0.28125 0  0.375 0.28125 0  0.40625 0.28125 0  0.4375 0.28125 0  0.46875 0.28125 0  0.5 0.28125 0  0.53125 0.28125 0  0.5625 0.28125 0  0.59375 0.28125 0  0.625 0.28125 0  0.65625 0.28125 0  0.6875 0.28125 0  0.71875 0.28125 0  0.75 0.28125 0  0.78125 0.28125 0  0.8125 0.28125 0  0.84375 0.28125 0  0.875 0.28125 0  0.90625 0.28125 0  0.9375 0.28125 0  0.96875 0.28125 0  1 0.28125 0  0 0.3125 0  0.03125 0.3125 0  0.0625 0.3125 0  0.09375 0.3125 0  0.125 0.3125 0  0.15625 0.3125 0  0.1875 0.3125 0  0.21875 0.3125 0  0.25 0.3125 0  0.28125 0.3125 0  0.3125 0.3125 0  0.34375 0.3125 0  0.375 0.3125 0  0.40625 0.3125 0  0.4375 0.3125 0  0.46875 0.3125 0  0.5 0.3125 0  0.53125 0.3125 0  0.5625 0.3125 0  0.59375 0.3125 0  0.625 0.3125 0  0.65625 0.3125 0  0.6875 0.3125 0  0.71875 0.3125 0  0.75 0.3125 0  0.78125 0.3125 0  0.8125 0.3125 0  0.84375 0.3125 0  0.875 0.3125 0  0.90625 0.3125 0  0.9375 0.3125 0  0.96875 0.3125 0  1 0.3125 0  0 0.34375 0  0.03125 0.34375 0  0.0625 0.34375 0  0.09375 0.34375 0  0.125 0.34375 0  0.15625 0.34375 0  0.1875 0.34375 0  0.21875 0.34375 0  0.25 0.34375 0  0.28125 0.34375 0  0.3125 0.34375 0  0.34375 0.34375 0  0.375 0.34375 0  0.40625 0.34375 0  0.4375 0.34375 0  0.46875 0.34375 0  0.5 0.34375 0  0.53125 0.34375 0  0.5625 0.34375 0  0.59375 0.34375 0  0.625 0.34375 0  0.65625 0.34375 0  0.6875 0.34375 0  0.71875 0.34375 0  0.75 0.34375 0  0.78125 0.34375 0  0.8125 0.34375 0  0.84375 0.34375 0  0.875 0.34375 0  0.90625 0.34375 0  0.9375 0.34375 0  0.96875 0.34375 0  1 0.34375 0  0 0.375 0  0.03125 0.375 0  0.0625 0.375 0  0.09375 0.375 0  0.125 0.375 0  0.15625 0.375 0  0.1875 0.375 0  0.21875 0.375 0  0.25 0.375 0  0.28125 0.375 0  0.3125 0.375 0  0.34375 0.375 0  0.375 0.375 0  0.40625 0.375 0  0.4375 0.375 0  0.46875 0.375 0  0.5 0.375 0  0.53125 0.375 0  0.5625 0.375 0  0.59375 0.375 0  0.625 0.375 0  0.65625 0.375 0  0.6875 0.375 0  0.71875 0.375 0  0.75 0.375 0  0.78125 0.375 0  0.8125 0.375 0  0.84375 0.375 0  0.875 0.375 0  0.90625 0.375 0  0.9375 0.375 0  0.96875 0.375 0  1 0.375 0  0 0.40625 0  0.03125 0.40625 0  0.0625 0.40625 0  0.09375 0.40625 0  0.125 0.40625 0  0.15625 0.40625 0  0.1875 0.40625 0  0.21875 0.40625 0  0.25 0.40625 0  0.28125 0.40625 0  0.3125 0.40625 0  0.34375 0.40625 0  0.375 0.40625 0  0.40625 0.40625 0  0.4375 0.40625 0  0.46875 0.40625 0  0.5 0.40625 0  0.53125 0.40625 0  0.5625 0.40625 0  0.59375 0.40625 0  0.625 0.40625 0  0.65625 0.40625 0  0.6875 0.40625 0  0.71875 0.40625 0  0.75 0.40625 0  0.78125 0.40625 0  0.8125 0.40625 0  0.84375 0.40625 0  0.875 0.40625 0  0.90625 0.40625 0  0.9375 0.40625 0  0.96875 0.40625 0  1 0.40625 0  0 0.4375 0  0.03125 0.4375 0  0.0625 0.4375 0  0.09375 0.4375 0  0.125 0.4375 0  0.15625 0.4375 0  0.1875 0.4375 0  0.21875 0.4375 0  0.25 0.4375 0  0.28125 0.4375 0  0.3125 0.4375 0  0.34375 0.4375 0  0.375 0.4375 0  0.40625 0.4375 0  0.4375 0.4375 0  0.46875 0.4375 0  0.5 0.4375 0  0.53125 0.4375 0  0.5625 0.4375 0  0.59375 0.4375 0  0.625 0.4375 0  0.65625 0.4375 0  0.6875 0.4375 0  0.71875 0.4375 0  0.75 0.4375 0  0.78125 0.4375 0  0.8125 0.4375 0  0.84375 0.4375 0  0.875 0.4375 0  0.90625 0.4375 0  0.9375 0.4375 0  0.96875 0.4375 0  1 0.4375 0  0 0.46875 0  0.03125 0.46875 0  0.0625 0.46875 0  0.09375 0.46875 0  0.125 0.46875 0  0.15625 0.46875 0  0.1875 0.46875 0  0.21875 0.46875 0  0.25 0.46875 0  0.28125 0.46875 0  0.3125 0.46875 0  0.34375 0.46875 0  0.375 0.46875 0  0.40625 0.46875 0  0.4375 0.46875 0  0.46875 0.46875 0  0.5 0.46875 0  0.53125 0.46875 0  0.5625 0.46875 0  0.59375 0.46875 0  0.625 0.46875 0  0.65625 0.46875 0  0.6875 0.46875 0  0.71875 0.46875 0  0.75 0.46875 0  0.78125 0.46875 0  0.8125 0.46875 0  0.84375 0.46875 0  0.875 0.46875 0  0.90625 0.46875 0  0.9375 0.46875 0  0.96875 0.46875 0  1 0.46875 0  0 0.5 0  0.03125 0.5 0  0.0625 0.5 0  0.09375 0.5 0  0.125 0.5 0  0.15625 0.5 0  0.1875 0.5 0  0.21875 0.5 0  0.25 0.5 0  0.28125 0.5 0  0.3125 0.5 0  0.34375 0.5 0  0.375 0.5 0  0.40625 0.5 0  0.4375 0.5 0  0.46875 0.5 0  0.5 0.5 0  0.53125 0.5 0  0.5625 0.5 0  0.59375 0.5 0  0.625 0.5 0  0.65625 0.5 0  0.6875 0.5 0  0.71875 0.5 0  0.75 0.5 0  0.78125 0.5 0  0.8125 0.5 0  0.84375 0.5 0  0.875 0.5 0  0.90625 0.5 0  0.9375 0.5 0  0.96875 0.5 0  1 0.5 0  0 0.53125 0  0.03125 0.53125 0  0.0625 0.53125 0  0.09375 0.53125 0  0.125 0.53125 0  0.15625 0.53125 0  0.1875 0.53125 0  0.21875 0.53125 0  0.25 0.53125 0  0.28125 0.53125 0  0.3125 0.53125 0  0.34375 0.53125 0  0.375 0.53125 0  0.40625 0.53125 0  0.4375 0.53125 0  0.46875 0.53125 0  0.5 0.53125 0  0.53125 0.53125 0  0.5625 0.53125 0  0.59375 0.53125 0  0.625 0.53125 0  0.65625 0.53125 0  0.6875 0.53125 0  0.71875 0.53125 0  0.75 0.53125 0  0.78125 0.531
[...]
<PointData  Scalars="u_sol"> 
<DataArray  type="Float64"  Name="u_sol"  format="ascii">6.2505708296500756e-06  -1.3714254544895825e-04  1.4092657053563568e-04  8.7363329598782893e-04  8.0013030832763916e-04  2.4765607071622498e-03  1.6648079388946388e-03  -1.2382842080774757e-03  5.9685965667860431e-03  1.8396156266134816e-02  3.0838261142834902e-02  3.8402686121258030e-02  3.3978346862092980e-02  1.7513961134732525e-02  -5.1366961715168967e-03  -2.7148338782755566e-02  -4.3005769342526819e-02  -4.6715059811518703e-02  -3.3842676925227876e-02  -6.2713092641567365e-03  2.9414405421984022e-02  6.2105504820070441e-02  7.9471694840570040e-02  6.8218495418332636e-02  3.9241880102724530e-02  1.6813165950751767e-02  3.3034736064373178e-03  -2.0571759655689074e-03  -1.5432226633704772e-03  -1.1677428618208914e-03  -5.6567728577509716e-04  -2.3259726623597703e-04  3.6576725991140472e-05  -1.9195175270104295e-04  8.1549540053522853e-04  4.6084146023112529e-03  9.1397503866339110e-03  1.3087646598232059e-02  1.2924872485210320e-02  1.5789548508659854e-02  2.1897741216431964e-02  1.6866015462771378e-02  -1.2093410176671506e-02  -6.8098210375614296e-02  -1.4008914193185634e-01  -2.1197817278779563e-01  -2.7174018357203394e-01  -3.1337061956358664e-01  -3.3466105780398092e-01  -3.3503638501953925e-01  -3.1592498012873504e-01  -2.7920102087380028e-01  -2.2514955926297731e-01  -1.5613199957939949e-01  -7.8578512595106870e-02  -4.4100097701874853e-03  5.4903521356012265e-02  8.2177931253572992e-02  7.3134291666523923e-02  5.0714065721864938e-02  2.8608172592429308e-02  1.1853710382825072e-02  3.9478062543736349e-03  3.5698084689067783e-04  -3.5964171980220716e-04  5.5004502966854090e-05  -5.1834904160227261e-04  2.4221392098448206e-03  8.9954114894798178e-03  1.4174655942258783e-02  1.3902775167914796e-02  1.4939735633894165e-02  1.0246482877885347e-02  -2.2451880190007826e-02  -9.6332508550043522e-02  -1.9074717813214087e-01  -2.8030214396744207e-01  -3.5232714306826102e-01  -4.0261816810769385e-01  -4.3399168292314227e-01  -4.5143992086694107e-01  -4.5916901064089832e-01  -4.5949751647729703e-01  -4.5217688140424461e-01  -4.3531616708581261e-01  -4.0657686735962650e-01  -3.6211560574075480e-01  -2.9860730872753682e-01  -2.1691010762742977e-01  -1.2722859000598749e-01  -4.4665041118756001e-02  1.1337461666925411e-02  3.1567342662421213e-02  3.2300412379738949e-02  2.4498717025177742e-02  1.2510057233242416e-02  5.0730345332832922e-03  1.1098043306593400e-03  -2.3346999572159105e-04  -1.1606062688176971e-03  5.1545176715874471e-03  1.4286309416301522e-02  1.4145372046345972e-02  1.0299773562930525e-02  -4.8369924227256783e-03  -6.2104669861423226e-02  -1.6021741661285566e-01  -2.6344166508755745e-01  -3.4803975914312041e-01  -4.0547295870107758e-01  -4.3873786109663326e-01  -4.5656971985132616e-01  -4.6600147522422530e-01  -4.7088674458501895e-01  -4.7271603312563609e-01  -4.7226820350903098e-01  -4.7078394519953404e-01  -4.6903458542002741e-01  -4.6542422986118093e-01  -4.5556649905863933e-01  -4.3074950857349714e-01  -3.7964206083021262e-01  -2.9503832014065373e-01  -1.8586432028672145e-01  -7.8946479801625308e-02  -8.2579968441826267e-03  1.5983020382523475e-02  1.9552360816772047e-02  1.7174934092194685e-02  8.8652457557606840e-03  2.4396260660881569e-03  -4.2132224898469919e-04  -1.7100031061844864e-03  9.3193897660789268e-03  1.5524766842676663e-02  7.5530785728169974e-03  -1.4730592809983737e-02  -8.3178170083719888e-02  -1.8844073800566422e-01  -2.9077247128893274e-01  -3.6554861210658179e-01  -4.0683640344198047e-01  -4.2323534971627530e-01  -4.2654270312609804e-01  -4.2444545416918927e-01  -4.2050913925594019e-01  -4.1644010881620663e-01  -4.1342248178390290e-01  -4.1217397256197902e-01  -4.1271016185243564e-01  -4.1538389509232732e-01  -4.2168034604934895e-01  -4.3206705744562468e-01  -4.4321471507573584e-01  -4.4395702857905839e-01  -4.1547361865344723e-01  -3.4051628491680996e-01  -2.2194132559983731e-01  -9.3982621092044513e-02  -1.0045134780946607e-02  1.2047195764149740e-02  1.2371857224641616e-02  9.9506065249006653e-03  3.6863452683110259e-03  -6.7295208827753653e-04  -1.9778014562002290e-03  1.1606667617033307e-02  8.5011011482475762e-03  -1.6289062653028059e-02  -8.3127524959351273e-02  -1.8713943543283418e-01  -2.8680651501942500e-01  -3.5348418597748810e-01  -3.8271245347466770e-01  -3.8745980095703375e-01  -3.8236258133168272e-01  -3.7590494736218610e-01  -3.7149224515846457e-01  -3.6998204989958283e-01  -3.7061451527081946e-01  -3.7180454313684053e-01  -3.7225128237928201e-01  -3.7184223059174082e-01  -3.7126610558763484e-01  -3.7156979142672214e-01  -3.7518905417374993e-01  -3.8560922868572650e-01  -4.0400512753311579e-01  -4.2127807862987998e-01  -4.1359623403319956e-01  -3.5338217574006203e-01  -2.3513270836936517e-01  -9.5246142340662726e-02  -4.8881004833381675e-03  9.6589927415226158e-03  7.9179817620421873e-03  2.7538329678072886e-03  -6.0548757432782676e-04  -1.7426621286599595e-04  7.4947174301066228e-03  -1.1388919151791814e-02  -6.8627559539990682e-02  -1.6466704482224925e-01  -2.6190568777887557e-01  -3.2562333918514591e-01  -3.4935440923066169e-01  -3.4849325011672838e-01  -3.4064709470381321e-01  -3.3523941366891541e-01  -3.3473432895300187e-01  -3.3799156010414538e-01  -3.4236521352327576e-01  -3.4582545623981303e-01  -3.4791192280397948e-01  -3.4911042065045472e-01  -3.4980066160114526e-01  -3.4993008658361002e-01  -3.4914366503621169e-01  -3.4696967106639570e-01  -3.4447137303618497e-01  -3.4669703092973181e-01  -3.6105932578121591e-01  -3.8467234813590639e-01  -3.9065603240639174e-01  -3.4032457714625575e-01  -2.2162022801044728e-01  -7.7027263146703578e-02  5.5161325149278816e-03  4.5979485960269319e-03  3.3825428342115819e-03  -2.9245628212151080e-04  3.1601372887110160e-03  -4.0373854386820352e-03  -4.7079335309196432e-02  -1.2888888909267071e-01  -2.2223897664188491e-01  -2.8826934100767343e-01  -3.1320175152881996e-01  -3.1125134614049393e-01  -3.0303171767211362e-01  -2.9954477576646987e-01  -3.0200447850834716e-01  -3.0713820187250040e-01  -3.1132554278129998e-01  -3.1342332379128068e-01  -3.1437343656788669e-01  -3.1521531182446588e-01  -3.1632564684153491e-01  -3.1782324878285989e-01  -3.1990698318989491e-01  -3.2266920418497747e-01  -3.2546678403942592e-01  -3.2606894646610451e-01  -3.2210911780142426e-01  -3.1715533276524149e-01  -3.2404632506134834e-01  -3.4805907741613651e-01  -3.5989490971356430e-01  -3.0987256132430313e-01  -1.8445007944867195e-01  -4.2845149326164220e-02  1.3284695192603491e-02  2.1467875465439214e-04  -2.3320329662262706e-04  4.8621974799476671e-03  -2.1522061269182133e-02  -8.6244919423215535e-02  -1.7149042909209727e-01  -2.4226475438626358e-01  -2.7466834985454597e-01  -2.7582979761903931e-01  -2.6791354595039013e-01  -2.6519691123484629e-01  -2.6883601150360431e-01  -2.7408881015486702e-01  -2.7708650201995033e-01  -2.7786219107096483e-01  -2.7833369651640710e-01  -2.7934486715438384e-01  -2.8067821620487271e-01  -2.8207664793181125e-01  -2.8343387654361385e-01  -2.8479754643478122e-01  -2.8660227727625526e-01  -2.8973623428258105e-01  -2.9482678432764642e-01  -2.9958393316660981e-01  -2.9807276628271978e-01  -2.9007436836376360e-01  -2.9195308072308229e-01  -3.1543305885860728e-01  -3.2543016598749047e-01  -2.6382186822994685e-01  -1.2699941002214227e-01  -3.4734939295030368e-03  5.7000957685262700e-03  -2.2066868715789494e-03  5.3260327885819841e-03  -3.8861453709491095e-02  -1.1298435503466497e-01  -1.8612863616500044e-01  -2.3058205916451993e-01  -2.4029242607558512e-01  -2.3410815350972272e-01  -2.3080452202269144e-01  -2.3440702709989505e-01  -2.3965770895479546e-01  -2.4225415655377799e-01  -2.4285165219124533e-01  -2.4398526108287888e-01  -2.4618230242523381e-01  -2.4864256814732355e-01  -2.5089261551949488e-01  -2.5281353448949118e-01  -2.5446234734949991e-01  -2.5587876865168346e-01  -2.5684938250608974e-01  -2.5734107363053282e-01  -2.5850814587933690e-01  -2.6286087269090452e-01  -2.6968844574314116e-01  -2.7045362230508507e-01  -2.6141624792867207e-01  -2.6256306199088641e-01  -2.8671349669069623e-01  -2.8526278188595994e-01  -1.9930825215264292e-01  -5.8308789397882442e-02  1.7930154050402793e-02  -4.2838523513239850e-03  5.3650002371502595e-03  -4.9009581757361143e-02  -1.2074277020457046e-01  -1.7633036689772055e-01  -2.0064470149045985e-01  -2.0043343812335920e-01  -1.9642084080193040e-01  -1.9888233305668720e-01  -2.0436353420613870e-01  -2.0750127840411597e-01  -2.0845340622138933e-01  -2.1012431283470559e-01  -2.1299438542827379e-01  -2.1577265239139781e-01  -2.1798239942480643e-01  -2.1987645856170637e-01  -2.2175310983619140e-01  -2.2375313699605334e-01  -2.2589831159461474e-01  -2.2814929992917235e-01  -2.2998357157092780e-01  -2.3036506155293704e-01  -2.2980843030141243e-01  -2.3252917740065893e-01  -2.3974190408544244e-01  -2.4054507158219901e-01  -2.3059422327179582e-01  -2.3575997417976918e-01  -2.5882199286118557e-01  -2.3187967520718442e-01  -1.1349769347938385e-01  -2.0043065918904173e-04  1.9525711437064117e-03  4.9734463026017226e-03  -4.9682164569606731e-02  -1.1195787596506655e-01  -1.5140724291354254e-01  -1.6406786908194815e-01  -1.6235897406875174e-01  -1.6290644531777962e-01  -1.6816816220832176e-01  -1.7254544699288524e-01  -1.7425786454621472e-01  -1.7606931707645901e-01  -1.7911622726245890e-01  -1.8194718075857094e-01  -1.8396076653216425e-01  -1.8572519571834237e-01  -1.8761227425877078e-01  -1.8961785836793979e-01  -1.9167131275750643e-01  -1.9377052746624734e-01  -1.9605467178022443e-01  -1.9883152411774027e-01  -2.0179618898107105e-01  -2.0294306627541142e-01  -2.0168022293739610e-01  -2.0371731982464075e-01  -2.1077568058292165e-01  -2.0874167862775800e-01  -1.9901690096620175e-01  -2.1257527252740555e-01  -2.2344453846876222e-01  -1.5273034312962916e-01  -2.8045192988302225e-02  1.2516736121237233e-02  4.7919777277998172e-03  -4.2680342577976343e-02  -9.2757453739911302e-02  -1.2000406981428215e-01  -1.2740730923085669e-01  -1.2761757155343464e-01  -1.3139855040054182e-01  -1.3687538155100160e-01  -1.3999398026386503e-01  -1.4192383694155647e-01  -1.4481461528300399e-01  -1.4782282526815529e-01  -1.4995553052693517e-01  -1.5184903558686344e-01  -1.5404013294838945e-01  -1.5636528006020808e-01  -1.5864730797212157e-01  -1.6088791343797909e-01  -1.6309787618757951e-01  -1.6519493391738319e-01  -1.6721715643234963e-01  -1.6982577618129613e-01  -1.7328259474790403e-01  -1.7481150750735100e-01  -1.7330448561396827e-01  -1.7625524240468818e-01  -1.8214383940378739e-01  -1.7466005983200947e-01  -1.7047083341844443e-01  -1.9010625371635959e-01  -1.6351177767126968e-01  -4.6934230951640718e-02  1.8138997012910957e-02  4.6227881535908432e-03  -3.1106606052966543e-02  -6.8816592218794354e-02  -8.7525945634736826e-02  -9.3104691425566322e-02  -9.5487547632031503e-02  -1.0053041259755650e-01  -1.0525852603224144e-01  -1.0792506836066183e-01  -1.1048314320564083e-01  -1.1356073123493766e-01  -1.1603765485736829e-01  -1.1804448059445936e-01  -1.2031967035680499e-01  -1.2274911650182806e-01  -1.2507418122871192e-01  -1.2739718865204952e-01  -1.2981744185514513e-01  -1.3233558343357912e-01  -1.3492942664315558e-01  -1.3737394897475522e-01  -1.3940126703001596e-01  -1.4188736104838776e-01  -1.4546338169231007e-01  -1.4645663459059796e-01  -1.4522921991844842e-01  -1.5045464025489672e-01  -1.5158543978646094e-01  -1.4020396080830683e-01  -1.4930550364329306e-01  -1.5208145609996299e-01  -6.3019206247522844e-02  1.7584639283045610e-02  4.6510897497293547e-03  -1.7560447983511786e-02  -4.3721099555923987e-02  -5.6402642687058933e-02  -6.1407026437769754e-02  -6.5038979493681703e-02  -6.9997803996860536e-02  -7.3936961711556920e-02  -7.6578347969100943e-02  -7.9366833847595172e-02  -8.2131516485170961e-02  -8.4329012958692745e-02  -8.6497755431959131e-02  -8.8876784297820380e-02  -9.1174412546053824e-02  -9.3444192751154953e-02  -9.5856718503722266e-02  -9.8406431436292324e-02  -1.0108272775026650e-01  -1.0390560860241524e-01  -1.0692150148155399e-01  -1.0986520476278407e-01  -1.1219209609309612e-01  -1.1504214853157163e-01  -1.1853123293621265e-01  -1.1823592986306496e-01  -1.1921809536108401e-01  -1.2523812906650997e-01  -1.1726720773821651e-01  -1.1356401875538399e-01  -1.2851515455759888e-01  -7.0546777450570655e-02  1.2946667411829224e-02  4.5955226174818498e-03  -3.8838295793627931e-03  -1.9146703813024656e-02  -2.7248820578540438e-02  -3.1728219774241395e-02  -3.5678562771614956e-02  -3.9883258353358007e-02  -4.3162781925840152e-02  -4.5736342608303900e-02  -4.8359669340208723e-02  -5.0753299871416364e-02  -5.2845011328028033e-02  -5.5023914535664992e-02  -5.7259209767325937e-02  -5.9468265250966733e-02  -6.1824991621156657e-02  -6.4376729821827350e-02  -6.7088664813787127e-02  -6.9971364335548972e-02  -7.3014761174621551e-02  -7.6200230854237605e-02  -7.9633805572382615e-02  -8.3029339674890568e-02  -8.5827095987432628e-02  -8.9528213933569287e-02  -9.2165702352189835e-02  -9.1430107290618054e-02  -9.6957803096910516e-02  -9.6292340956475389e-02  -8.5638185001359807e-02  -1.0084404573152841e-01  -6.9870689919544995e-02  8.2995314124475958e-03  2.6263713416235590e-03  9.3864706118672956e-03  4.0662895966667896e-03  5.5478009777192147e-04  -3.4462952515411580e-03  -7.0204186058726937e-03  -1.0230099440810360e-02  -1.2857984774720223e-02  -1.5212444189400218e-02  -1.7459792704264950e-02  -1.9514452756027759e-02  -2.1460156884881662e-02  -2.3474899889086961e-02  -2.5534710192262212e-02  -2.7698187776185705e-02  -3.0077612851593157e-02  -3.2679775662766135e-02  -3.5528607062656120e-02  -3.8652509520720739e-02  -4.2041177361251535e-02  -4.5670484782358176e-02  -4.9444435392968035e-02  -5.3465402248066528e-02  -5.7346037225765215e-02  -6.1013641233540611e-02  -6.5462445398804400e-02  -6.6433527112466945e-02  -6.9551450528750391e-02  -7.4687306436356418e-02  -6.4065440933001816e-02  -7.4191375312694083e-02  -6.2249329752134937e-02  5.4386398579965387e-03  -3.9604423344873156e-04  2.1786435747068088e-02  2.6433704177300971e-02  2.7519920567308499e-02  2.4348202622073319e-02  2.1091661608133538e-02  1.9089435802233771e-02  1.7140671215352454e-02  1.5111644232637916e-02  1.3306732034653559e-02  1.1653977716705179e-02  9.9254342870664595e-03  8.1609214285667808e-03  6.3055400101697133e-03  4.2331120124309146e-03  1.9142332855193193e-03  -6.9752084103008268e-04  -3.6712481679652977e-03  -7.0197786021409057e-03  -1.0740103078199599e-02  -1.4837709905102050e-02  -1.9274629298152119e-02  -2.3894321675555906e-02  -2.8771388802794767e-02  -3.3407675935106136e-02  -3.8506613737369966e-02  -4.2400185743280347e-02  -4.4625239318263871e-02  -5.2432707276831948e-02  -4.6241988326148446e-02  -5.0776450663554074e-02  -5.1282033734545207e-02  3.8977407078014783e-03  -2.9119602239562939e-03  3.2388462255796807e-02  4.8897972913658078e-02  5.3867544930438611e-02  5.2500858107138025e-02  4.8973564173886715e-02  4.8131986196289459e-02  4.7002758774357146e-02  4.5337628754261561e-02  4.3958398992717404e-02  4.2790075764940559e-02  4.1388138657274191e-02  3.9902752258144727e-02  3.8334604798136065e-02  3.6442643797793613e-02  3.4205891648454022e-02  3.1598569130268199e-02  2.8534415410859458e-02  2.4978113779809907e-02  2.0895425077818105e-02  1.6306932008704204e-02  1.1242921666473752e-02  5.7452107178229258e-03  -4.4552628303514085e-05  -6.0957505407820385e-03  -1.2072896268738063e-02  -1.8231339560787464e-02  -2.2168004079749972e-02  -3.0375559329155682e-02  -3.0101002610813693e-02  -3.1563766301651870e-02  -3.9839100341540354e-02  2.8543975022817698e-03  -5.2701718525960317e-03  3.9960200196269995e-02  7.1107020102169544e-02  8.0209822881487730e-02  8.1237487079612897e-02  7.7338406113416552e-02  7.6819739982058169e-02  7.6855341722302198e-02  7.5593239992633440e-02  7.4565672773196728e-02  7.3917791888926956e-02  7.2996504147243318e-02  7.1825796756469246e-02  7.0579322017395349e-02  6.9018228635692125e-02  6.6965011119327872e-02  6.4398770145701334e-02  6.1270410603179157e-02  5.7502252371555276e-02  5.3044454102556121e-02  4.7919309486663023e-02  4.2160431600270824e-02  3.5756413827197943e-02  2.8816931051236085e-02  2.1414373654603067e-02  1.3834638057289673e-02  6.1001775582741951e-03  -1.1624478303558191e-03  -9.3612770123083725e-03  -1.4591795764843646e-02  -1.6300399265733886e-02  -2.9574370685979477e-02  1.8232353440595919e-03  -7.6850672166944127e-03  4.2826723094813397e-02  9.1283515441622845e-02  1.0704910537039096e-01  1.1042923720900867e-01  1.0677297191191004e-01  1.0530271969345162e-01  1.0645833863930985e-01  1.0602883955957842e-01  1.0515060091835812e-01  1.0498720122571858e-01  1.0475624898160411e-01  1.0405372479337834e-01  1.0310198877256949e-01  1.0189056855844209e-01  1.0016502015686926e-01  9.7766330482631933e-02  9.4625183660287410e-02  9.0665202232539849e-02  8.5867836559728863e-02  8.0236804086863719e-02  7.3702958747193487e-02  6.6302998339513752e-02  5.8102360988172598e-02  4.9198539364851128e-02  3.9869010953366021e-02  3.0135335698231906e-02  1.9706289572493121e-02  9.9988164825590992e-03  9.6768088064258355e-04  -4.3528359571399656e-03  -2.1180807616591465e-02  4.3182982604090078e-04  -9.5900244140654841e-03  3.9831706935210806e-02  1.0605524484565640e-01  1.3357119707741669e-01  1.4001280109592884e-01  1.3738790948236221e-01  1.3429925403864207e-01  1.3542545333749942e-01  1.3651765462303608e-01  1.3601048009711661e-01  1.3595823578299659e-01  1.3649090258147337e-01  1.3666010591285382e-01  1.3623760067483576e-01  1.3535434132695942e-01  1.3393580175348282e-01  1.3177830552519723e-01  1.2872311943500359e-01  1.2469118731703256e-01  1.1962909837275162e-01  1.1344294967468058e-01  1.0608353762406640e-01  9.7637715000705519e-02  8.8081718014261276e-02  7.7523390171262072e-02  6.6427766968482183e-02  5.4098298174673751e-02  4.0773890831251228e-02  2.8261800403609552e-02  1.6552823567191254e-02  5.4118292132998942e-03  -1.4950923709832434e-02  -1.2959066784404797e-03  -9.4738054005318231e-03  3.1200474072714909e-02  1.1084919325169985e-01  1.5701311797500953e-01  1.6980112717191889e-01  1.6881942221560242e-01  1.6458204069838495e-01  1.6398298640435985e-01  1.6627423783617931e-01  1.6729872104337043e-01  1.6739246151849890e-01  1.6815772928267517e-01  1.6927441028609469e-01  1.6989849209093591e-01  1.6973950917717939e-01  1.6877249894314908e-01  1.6690718555467940e-01  1.6399602904348315e-01  1.5989937436748267e-01  1.5450796797800234e-01  1.4771248063510467e-01  1.3956676022087158e-01  1.3005128133374971e-01  1.1899765690417340e-01  1.0686047397846644e-01  9.3784848650727407e-02  7.8485886490956044e-02  6.1886038366599269e-02  4.6825750039078448e-02  3.1869239634654836e-02  1.4260625725259804e-02  -1.0973288459727455e-02  -3.1229689185037746e-03  -6.6375258228896393e-03  1.8748098875276450e-02  1.0170774358133268e-01  1.7072547750525166e-01  1.9769302052049920e-01  2.0037273835548527e-01  1.9603545451144749e-01  1.9304189113372566e-01  1.9451363243281941e-01  1.9752361915050595e-01  1.9924590854285618e-01  2.0035196892568072e-01  2.0183710373714464e-01  2.0338125652998365e-01  2.0429838171249931e-01  2.0419610665802820e-01  2.0290260769732041e-01  2.0028622850693112e-01  1.9622535424953180e-01  1.9058479570536105e-01  1.8336114194435205e-01  1.7449356326772891e-01  1.6374041232857353e-01  1.5131035428810463e-01  1.3775630930297347e-01  1.2223448475198394e-01  1.0332943299362397e-01  8.3755906271715724e-02  6.6581585205350541e-02  4.7550405638181782e-02  2.2608954508184679e-02  -9.0054265511992238e-03  -5.2371387960275257e-03  -1.3365447064954555e-03  4.2495928025720556e-03  7.5775919059309013e-02  1.6663258152235683e-01  2.1802834820177053e-01  2.3136575400067469e-01  2.2861369963516509e-01  2.2401642843567240e-01  2.2311342339452081e-01  2.2630622713465748e-01  2.3053381345785098e-01  2.3374832955014924e-01  2.3617716436873643e-01  2.3832274612494458e-01  2.3999947731466889e-01  2.4073443264174857e-01  2.40141746102