<?xml version="1.0"?>
<VTKFile type="UnstructuredGrid"  version="0.1"  >
<UnstructuredGrid>
<Piece  NumberOfPoints="1089" NumberOfCells="1024">
<Points>
<DataArray  type="Float64"  NumberOfComponents="3"  format="ascii">0 0 0  0.03125 0 0  0.0625 0 0  0.09375 0 0  0.125 0 0  0.15625 0 0  0.1875 0 0  0.21875 0 0  0.25 0 0  0.28125 0 0  0.3125 0 0  0.34375 0 0  0.375 0 0  0.40625 0 0  0.4375 0 0  0.46875 0 0  0.5 0 0  0.53125 0 0  0.5625 0 0  0.59375 0 0  0.625 0 0  0.65625 0 0  0.6875 0 0  0.71875 0 0  0.75 0 0  0.78125 0 0  0.8125 0 0  0.84375 0 0  0.875 0 0  0.90625 0 0  0.9375 0 0  0.96875 0 0  1 0 0  0 0.03125 0  0.03125 0.03125 0  0.0625 0.03125 0  0.09375 0.03125 0  0.125 0.03125 0  0.15625 0.03125 0  0.1875 0.03125 0  0.21875 0.03125 0  0.25 0.03125 0  0.28125 0.03125 0  0.3125 0.03125 0  0.34375 0.03125 0  0.375 0.03125 0  0.40625 0.03125 0  0.4375 0.03125 0  0.46875 0.03125 0  0.5 0.03125 0  0.53125 0.03125 0  0.5625 0.03125 0  0.59375 0.03125 0  0.625 0.03125 0  0.65625 0.03125 0  0.6875 0.03125 0  0.71875 0.03125 0  0.75 0.03125 0  0.78125 0.03125 0  0.8125 0.03125 0  0.84375 0.03125 0  0.875 0.03125 0  0.90625 0.03125 0  0.9375 0.03125 0  0.96875 0.03125 0  1 0.03125 0  0 0.0625 0  0.03125 0.0625 0  0.0625 0.0625 0  0.09375 0.0625 0  0.125 0.0625 0  0.15625 0.0625 0  0.1875 0.0625 0  0.21875 0.0625 0  0.25 0.0625 0  0.28125 0.0625 0  0.3125 0.0625 0  0.34375 0.0625 0  0.375 0.0625 0  0.40625 0.0625 0  0.4375 0.0625 0  0.46875 0.0625 0  0.5 0.0625 0  0.53125 0.0625 0  0.5625 0.0625 0  0.59375 0.0625 0  0.625 0.0625 0  0.65625 0.0625 0  0.6875 0.0625 0  0.71875 0.0625 0  0.75 0.0625 0  0.78125 0.0625 0  0.8125 0.0625 0  0.84375 0.0625 0  0.875 0.0625 0  0.90625 0.0625 0  0.9375 0.0625 0  0.96875 0.0625 0  1 0.0625 0  0 0.09375 0  0.03125 0.09375 0  0.0625 0.09375 0  0.09375 0.09375 0  0.125 0.09375 0  0.15625 0.09375 0  0.1875 0.09375 0  0.21875 0.09375 0  0.25 0.09375 0  0.28125 0.09375 0  0.3125 0.09375 0  0.34375 0.09375 0  0.375 0.09375 0  0.40625 0.09375 0  0.4375 0.09375 0  0.46875 0.09375 0  0.5 0.09375 0  0.53125 0.09375 0  0.5625 0.09375 0  0.59375 0.09375 0  0.625 0.09375 0  0.65625 0.09375 0  0.6875 0.09375 0  0.71875 0.09375 0  0.75 0.09375 0  0.78125 0.09375 0  0.8125 0.09375 0  0.84375 0.09375 0  0.875 0.09375 0  0.90625 0.09375 0  0.9375 0.09375 0  0.96875 0.09375 0  1 0.09375 0  0 0.125 0  0.03125 0.125 0  0.0625 0.125 0  0.09375 0.125 0  0.125 0.125 0  0.15625 0.125 0  0.1875 0.125 0  0.21875 0.125 0  0.25 0.125 0  0.28125 0.125 0  0.3125 0.125 0  0.34375 0.125 0  0.375 0.125 0  0.40625 0.125 0  0.4375 0.125 0  0.46875 0.125 0  0.5 0.125 0  0.53125 0.125 0  0.5625 0.125 0  0.59375 0.125 0  0.625 0.125 0  0.65625 0.125 0  0.6875 0.125 0  0.71875 0.125 0  0.75 0.125 0  0.78125 0.125 0  0.8125 0.125 0  0.84375 0.125 0  0.875 0.125 0  0.90625 0.125 0  0.9375 0.125 0  0.96875 0.125 0  1 0.125 0  0 0.15625 0  0.03125 0.15625 0  0.0625 0.15625 0  0.09375 0.15625 0  0.125 0.15625 0  0.15625 0.15625 0  0.1875 0.15625 0  0.21875 0.15625 0  0.25 0.15625 0  0.28125 0.15625 0  0.3125 0.15625 0  0.34375 0.15625 0  0.375 0.15625 0  0.40625 0.15625 0  0.4375 0.15625 0  0.46875 0.15625 0  0.5 0.15625 0  0.53125 0.15625 0  0.5625 0.15625 0  0.59375 0.15625 0  0.625 0.15625 0  0.65625 0.15625 0  0.6875 0.15625 0  0.71875 0.15625 0  0.75 0.15625 0  0.78125 0.15625 0  0.8125 0.15625 0  0.84375 0.15625 0  0.875 0.15625 0  0.90625 0.15625 0  0.9375 0.15625 0  0.96875 0.15625 0  1 0.15625 0  0 0.1875 0  0.03125 0.1875 0  0.0625 0.1875 0  0.09375 0.1875 0  0.125 0.1875 0  0.15625 0.1875 0  0.1875 0.1875 0  0.21875 0.1875 0  0.25 0.1875 0  0.28125 0.1875 0  0.3125 0.1875 0  0.34375 0.1875 0  0.375 0.1875 0  0.40625 0.1875 0  0.4375 0.1875 0  0.46875 0.1875 0  0.5 0.1875 0  0.53125 0.1875 0  0.5625 0.1875 0  0.59375 0.1875 0  0.625 0.1875 0  0.65625 0.1875 0  0.6875 0.1875 0  0.71875 0.1875 0  0.75 0.1875 0  0.78125 0.1875 0  0.8125 0.1875 0  0.84375 0.1875 0  0.875 0.1875 0  0.90625 0.1875 0  0.9375 0.1875 0  0.96875 0.1875 0  1 0.1875 0  0 0.21875 0  0.03125 0.21875 0  0.0625 0.21875 0  0.09375 0.21875 0  0.125 0.21875 0  0.15625 0.21875 0  0.1875 0.21875 0  0.21875 0.21875 0  0.25 0.21875 0  0.28125 0.21875 0  0.3125 0.21875 0  0.34375 0.21875 0  0.375 0.21875 0  0.40625 0.21875 0  0.4375 0.21875 0  0.46875 0.21875 0  0.5 0.21875 0  0.53125 0.21875 0  0.5625 0.21875 0  0.59375 0.21875 0  0.625 0.21875 0  0.65625 0.21875 0  0.6875 0.21875 0  0.71875 0.21875 0  0.75 0.21875 0  0.78125 0.21875 0  0.8125 0.21875 0  0.84375 0.21875 0  0.875 0.21875 0  0.90625 0.21875 0  0.9375 0.21875 0  0.96875 0.21875 0  1 0.21875 0  0 0.25 0  0.03125 0.25 0  0.0625 0.25 0  0.09375 0.25 0  0.125 0.25 0  0.15625 0.25 0  0.1875 0.25 0  0.21875 0.25 0  0.25 0.25 0  0.28125 0.25 0  0.3125 0.25 0  0.34375 0.25 0  0.375 0.25 0  0.40625 0.25 0  0.4375 0.25 0  0.46875 0.25 0  0.5 0.25 0  0.53125 0.25 0  0.5625 0.25 0  0.59375 0.25 0  0.625 0.25 0  0.65625 0.25 0  0.6875 0.25 0  0.71875 0.25 0  0.75 0.25 0  0.78125 0.25 0  0.8125 0.25 0  0.84375 0.25 0  0.875 0.25 0  0.90625 0.25 0  0.9375 0.25 0  0.96875 0.25 0  1 0.25 0  0 0.28125 0  0.03125 0.28125 0  0.0625 0.28125 0  0.09375 0.28125 0  0.125 0.28125 0  0.15625 0.28125 0  0.1875 0.28125 0  0.21875 0.28125 0  0.25 0.28125 0  0.28125 0.28125 0  0.3125 0.28125 0  0.34375 0.28125 0  0.375 0.28125 0  0.40625 0.28125 0  0.4375 0.28125 0  0.46875 0.28125 0  0.5 0.28125 0  0.53125 0.28125 0  0.5625 0.28125 0  0.59375 0.28125 0  0.625 0.28125 0  0.65625 0.28125 0  0.6875 0.28125 0  0.71875 0.28125 0  0.75 0.28125 0  0.78125 0.28125 0  0.8125 0.28125 0  0.84375 0.28125 0  0.875 0.28125 0  0.90625 0.28125 0  0.9375 0.28125 0  0.96875 0.28125 0  1 0.28125 0  0 0.3125 0  0.03125 0.3125 0  0.0625 0.3125 0  0.09375 0.3125 0  0.125 0.3125 0  0.15625 0.3125 0  0.1875 0.3125 0  0.21875 0.3125 0  0.25 0.3125 0  0.28125 0.3125 0  0.3125 0.3125 0  0.34375 0.3125 0  0.375 0.3125 0  0.40625 0.3125 0  0.4375 0.3125 0  0.46875 0.3125 0  0.5 0.3125 0  0.53125 0.3125 0  0.5625 0.3125 0  0.59375 0.3125 0  0.625 0.3125 0  0.65625 0.3125 0  0.6875 0.3125 0  0.71875 0.3125 0  0.75 0.3125 0  0.78125 0.3125 0  0.8125 0.3125 0  0.84375 0.3125 0  0.875 0.3125 0  0.90625 0.3125 0  0.9375 0.3125 0  0.96875 0.3125 0  1 0.3125 0  0 0.34375 0  0.03125 0.34375 0  0.0625 0.34375 0  0.09375 0.34375 0  0.125 0.34375 0  0.15625 0.34375 0  0.1875 0.34375 0  0.21875 0.34375 0  0.25 0.34375 0  0.28125 0.34375 0  0.3125 0.34375 0  0.34375 0.34375 0  0.375 0.34375 0  0.40625 0.34375 0  0.4375 0.34375 0  0.46875 0.34375 0  0.5 0.34375 0  0.53125 0.34375 0  0.5625 0.34375 0  0.59375 0.34375 0  0.625 0.34375 0  0.65625 0.34375 0  0.6875 0.34375 0  0.71875 0.34375 0  0.75 0.34375 0  0.78125 0.34375 0  0.8125 0.34375 0  0.84375 0.34375 0  0.875 0.34375 0  0.90625 0.34375 0  0.9375 0.34375 0  0.96875 0.34375 0  1 0.34375 0  0 0.375 0  0.03125 0.375 0  0.0625 0.375 0  0.09375 0.375 0  0.125 0.375 0  0.15625 0.375 0  0.1875 0.375 0  0.21875 0.375 0  0.25 0.375 0  0.28125 0.375 0  0.3125 0.375 0  0.34375 0.375 0  0.375 0.375 0  0.40625 0.375 0  0.4375 0.375 0  0.46875 0.375 0  0.5 0.375 0  0.53125 0.375 0  0.5625 0.375 0  0.59375 0.375 0  0.625 0.375 0  0.65625 0.375 0  0.6875 0.375 0  0.71875 0.375 0  0.75 0.375 0  0.78125 0.375 0  0.8125 0.375 0  0.84375 0.375 0  0.875 0.375 0  0.90625 0.375 0  0.9375 0.375 0  0.96875 0.375 0  1 0.375 0  0 0.40625 0  0.03125 0.40625 0  0.0625 0.40625 0  0.09375 0.40625 0  0.125 0.40625 0  0.15625 0.40625 0  0.1875 0.40625 0  0.21875 0.40625 0  0.25 0.40625 0  0.28125 0.40625 0  0.3125 0.40625 0  0.34375 0.40625 0  0.375 0.40625 0  0.40625 0.40625 0  0.4375 0.40625 0  0.46875 0.40625 0  0.5 0.40625 0  0.53125 0.40625 0  0.5625 0.40625 0  0.59375 0.40625 0  0.625 0.40625 0  0.65625 0.40625 0  0.6875 0.40625 0  0.71875 0.40625 0  0.75 0.40625 0  0.78125 0.40625 0  0.8125 0.40625 0  0.84375 0.40625 0  0.875 0.40625 0  0.90625 0.40625 0  0.9375 0.40625 0  0.96875 0.40625 0  1 0.40625 0  0 0.4375 0  0.03125 0.4375 0  0.0625 0.4375 0  0.09375 0.4375 0  0.125 0.4375 0  0.15625 0.4375 0  0.1875 0.4375 0  0.21875 0.4375 0  0.25 0.4375 0  0.28125 0.4375 0  0.3125 0.4375 0  0.34375 0.4375 0  0.375 0.4375 0  0.40625 0.4375 0  0.4375 0.4375 0  0.46875 0.4375 0  0.5 0.4375 0  0.53125 0.4375 0  0.5625 0.4375 0  0.59375 0.4375 0  0.625 0.4375 0  0.65625 0.4375 0  0.6875 0.4375 0  0.71875 0.4375 0  0.75 0.4375 0  0.78125 0.4375 0  0.8125 0.4375 0  0.84375 0.4375 0  0.875 0.4375 0  0.90625 0.4375 0  0.9375 0.4375 0  0.96875 0.4375 0  1 0.4375 0  0 0.46875 0  0.03125 0.46875 0  0.0625 0.46875 0  0.09375 0.46875 0  0.125 0.46875 0  0.15625 0.46875 0  0.1875 0.46875 0  0.21875 0.46875 0  0.25 0.46875 0  0.28125 0.46875 0  0.3125 0.46875 0  0.34375 0.46875 0  0.375 0.46875 0  0.40625 0.46875 0  0.4375 0.46875 0  0.46875 0.46875 0  0.5 0.46875 0  0.53125 0.46875 0  0.5625 0.46875 0  0.59375 0.46875 0  0.625 0.46875 0  0.65625 0.46875 0  0.6875 0.46875 0  0.71875 0.46875 0  0.75 0.46875 0  0.78125 0.46875 0  0.8125 0.46875 0  0.84375 0.46875 0  0.875 0.46875 0  0.90625 0.46875 0  0.9375 0.46875 0  0.96875 0.46875 0  1 0.46875 0  0 0.5 0  0.03125 0.5 0  0.0625 0.5 0  0.09375 0.5 0  0.125 0.5 0  0.15625 0.5 0  0.1875 0.5 0  0.21875 0.5 0  0.25 0.5 0  0.28125 0.5 0  0.3125 0.5 0  0.34375 0.5 0  0.375 0.5 0  0.40625 0.5 0  0.4375 0.5 0  0.46875 0.5 0  0.5 0.5 0  0.53125 0.5 0  0.5625 0.5 0  0.59375 0.5 0  0.625 0.5 0  0.65625 0.5 0  0.6875 0.5 0  0.71875 0.5 0  0.75 0.5 0  0.78125 0.5 0  0.8125 0.5 0  0.84375 0.5 0  0.875 0.5 0  0.90625 0.5 0  0.9375 0.5 0  0.96875 0.5 0  1 0.5 0  0 0.53125 0  0.03125 0.53125 0  0.0625 0.53125 0  0.09375 0.53125 0  0.125 0.53125 0  0.15625 0.53125 0  0.1875 0.53125 0  0.21875 0.53125 0  0.25 0.53125 0  0.28125 0.53125 0  0.3125 0.53125 0  0.34375 0.53125 0  0.375 0.53125 0  0.40625 0.53125 0  0.4375 0.53125 0  0.46875 0.53125 0  0.5 0.53125 0  0.53125 0.53125 0  0.5625 0.53125 0  0.59375 0.53125 0  0.625 0.53125 0  0.65625 0.53125 0  0.6875 0.53125 0  0.71875 0.53125 0  0.75 0.53125 0  0.78125 0.531
[...]
<PointData  Scalars="v_sol"> 
<DataArray  type="Float64"  Name="v_sol"  format="ascii">-2.8184808946849441e-05  2.0813365349153985e-04  4.2037462898193804e-04  4.4531507542956689e-04  2.7443833462067975e-04  1.4198290225870590e-04  8.7238181859746928e-05  1.1151509953009199e-03  9.9545224117491638e-04  -2.9298668378675880e-03  -7.3723844285459115e-03  -9.0497048883246434e-03  -7.9109424387904335e-03  -5.4010881294539684e-03  -2.5710046654511972e-03  4.6688297503054280e-04  3.0093091899852701e-03  3.7990956404159583e-03  4.0243963224115085e-03  4.5235651009901739e-03  5.4106761852684062e-03  5.9077651165907854e-03  7.1928796704321413e-03  7.2330968283313571e-03  1.0778292907735621e-03  -3.6029081713842429e-03  -3.4206989229455505e-03  -2.4335675061616449e-03  -1.1866679403551962e-03  -4.1184680192961370e-04  -1.0713720714242455e-04  5.1324646802986061e-05  5.4006725350873215e-05  2.4373041433081575e-04  -1.0018484990421601e-03  -2.4373423045851994e-03  -2.2426657325135295e-03  -1.3489181921995537e-03  -1.1717571856229587e-03  1.7121769761867985e-04  -3.8758331555278280e-03  -4.5275303407000421e-03  8.5053815931225851e-03  2.2907537086207221e-02  3.3704333093539256e-02  3.9201702112713635e-02  3.7421827305860120e-02  2.9289730638266544e-02  1.6360721960068547e-02  4.7097602455688171e-04  -1.6779041756466488e-02  -3.3995711997987531e-02  -4.8341070473754105e-02  -5.5425326677567770e-02  -5.1114019861707008e-02  -3.3659784117179202e-02  -6.7721452757055394e-03  1.6039646106480083e-02  2.2883104836811247e-02  1.8382947107357012e-02  1.0692678284672085e-02  4.7699431093482184e-03  1.8570024005995578e-03  4.1031305983935449e-04  -3.6996993463734706e-04  -2.5592423732704580e-04  4.4631058957789080e-04  -4.9732949085488868e-03  -8.0249956130262461e-03  -6.6218284817548042e-03  -1.9082698400907871e-03  -1.0672885839116606e-03  -2.1740811664529235e-03  1.6120947325155822e-02  5.0748723388651613e-02  8.3665107662338326e-02  1.0415340034386553e-01  1.0711598596989749e-01  9.5763872019643342e-02  7.5231659280288674e-02  4.9989956224191931e-02  2.2648181311724018e-02  -6.3313027820139835e-03  -3.7293246394941144e-02  -6.9216721808844597e-02  -9.9411923962686444e-02  -1.2253633974647885e-01  -1.3010121326903473e-01  -1.1439337418274684e-01  -7.5286673640031943e-02  -2.4560206929169798e-02  1.3673353611183558e-02  2.6498777887721658e-02  2.5340298507946998e-02  1.8214216130724464e-02  9.8176257860540760e-03  4.2719806762292660e-03  5.9996541452675715e-04  -3.5289104896060790e-04  1.6201885673998353e-04  -1.2606052986988475e-02  -1.4995059387090538e-02  -5.3891587389491864e-03  -1.7594678730012181e-04  8.5260838591715241e-03  4.6613113657827568e-02  1.0246100706449557e-01  1.4909768357326636e-01  1.7130104947748848e-01  1.6877721878029198e-01  1.4916989796752578e-01  1.2100519865835398e-01  8.9989480403962124e-02  5.8087621593305154e-02  2.5410964523147714e-02  -8.3242297032846829e-03  -4.3402189377518274e-02  -8.0644982224745240e-02  -1.1977257722156609e-01  -1.5777106184157205e-01  -1.8746496574557056e-01  -1.9704453271760988e-01  -1.7499030775889218e-01  -1.2027847311902438e-01  -4.9789515166645239e-02  2.9566324446987442e-03  2.1071980372491906e-02  2.3412855580324375e-02  1.9271155827305528e-02  1.0850240987411790e-02  4.6721657059938804e-03  -2.1261425527344682e-04  -1.4840799787513073e-03  -2.5344359101556961e-02  -1.5960880715909939e-02  7.1037636580163191e-04  1.9430252857854938e-02  7.3185026161892694e-02  1.4784397833528823e-01  2.0522552215349252e-01  2.2817273063151525e-01  2.2005779698566477e-01  1.9346059244247157e-01  1.5973365886057025e-01  1.2469839227721895e-01  9.0172148163088314e-02  5.6562862706501391e-02  2.3752878631247688e-02  -8.9577404568959972e-03  -4.2683533715596890e-02  -7.8155018313225105e-02  -1.1609623297015308e-01  -1.5700069676937098e-01  -1.9935119936109705e-01  -2.3639602736984253e-01  -2.5371923263357893e-01  -2.3358852374154396e-01  -1.6865430026222064e-01  -7.5947226336450097e-02  -2.0654454476483632e-03  2.0924387707116882e-02  2.1753486711314177e-02  1.8505119969674449e-02  1.0034131683942231e-02  8.7822908224890670e-04  -8.2148045702089730e-03  -3.7331709637293944e-02  -8.6055581782098906e-03  2.5195797621683839e-02  8.7427238080207331e-02  1.7843484950685903e-01  2.4868605479780539e-01  2.7502050615746282e-01  2.6277657901997309e-01  2.3031989118501703e-01  1.9233312992812546e-01  1.5508780982278178e-01  1.2001396371493121e-01  8.6953875792882537e-02  5.5040654795143050e-02  2.3206091712118061e-02  -9.2315160946508344e-03  -4.2369656388644990e-02  -7.6098924260662545e-02  -1.1037577294467764e-01  -1.4573363001351688e-01  -1.8399136646924194e-01  -2.2716704372190011e-01  -2.7156222526489293e-01  -3.0022278919502099e-01  -2.8556871218943453e-01  -2.1030199593952845e-01  -9.1884038061946532e-02  1.7045735715027108e-03  2.4018088833917782e-02  2.0428805804885899e-02  1.7357396793045755e-02  1.0940670158853148e-03  -1.7888639615973655e-02  -4.2867315926487917e-02  1.6023103826515853e-02  8.6560807244645419e-02  1.8882718209424901e-01  2.7709051767037074e-01  3.1311149027404311e-01  3.0081314634015438e-01  2.6442295219763462e-01  2.2382440962976152e-01  1.8643215185729139e-01  1.5273317133730185e-01  1.2112294835578763e-01  8.9735622248179880e-02  5.7581053332519554e-02  2.4650067090333329e-02  -8.7974212760519883e-03  -4.2718297535037891e-02  -7.7084614720230926e-02  -1.1153318852142362e-01  -1.4521490850036581e-01  -1.7753750821144088e-01  -2.1070722205609957e-01  -2.5110801709549418e-01  -3.0060201590588370e-01  -3.3971872085061255e-01  -3.2726470093935917e-01  -2.3525961623538202e-01  -8.6596087745025460e-02  1.4699629904349244e-02  2.6884390690769207e-02  1.9763005597393753e-02  3.3566112746770374e-03  -2.9427021993677641e-02  -3.0695442500423095e-02  6.6757660098789334e-02  1.7603557241534909e-01  2.8551113586231108e-01  3.4160482538715325e-01  3.3671725748654019e-01  2.9896450564432070e-01  2.5647904392491178e-01  2.1959145112797632e-01  1.8759577731428623e-01  1.5703437688946767e-01  1.2545251145689396e-01  9.2593173645372132e-02  5.9277682830160619e-02  2.5898243054423890e-02  -7.6266759317308950e-03  -4.1424165042829683e-02  -7.5696552939001058e-02  -1.1062967887465663e-01  -1.4608061720316529e-01  -1.8078341491831465e-01  -2.1221345853936757e-01  -2.4096010283368183e-01  -2.7721591103080456e-01  -3.3002054630232636e-01  -3.7600800472432483e-01  -3.5594551228541194e-01  -2.3427518118685398e-01  -5.3213553854523039e-02  3.2060166877977775e-02  2.3383248942960053e-02  5.0913924145089603e-03  -3.5803335877185850e-02  6.3819306923105276e-03  1.3929818424146720e-01  2.6733723673067611e-01  3.5446071220550435e-01  3.6963979062900787e-01  3.3550482030948681e-01  2.9080409069543522e-01  2.5358358659208430e-01  2.2275114453374453e-01  1.9271451824421768e-01  1.6050544336650460e-01  1.2681415621138020e-01  9.3232662633183055e-02  6.0051487018600219e-02  2.6939845580923848e-02  -6.3217204454254616e-03  -3.9849362183116278e-02  -7.3573492307570321e-02  -1.0749263206345530e-01  -1.4204300007920645e-01  -1.7801302613511003e-01  -2.1466404579319323e-01  -2.4733907080913897e-01  -2.7340742500996079e-01  -3.0673411671034834e-01  -3.6365854929765967e-01  -4.1033614632384124e-01  -3.6506166880543783e-01  -1.9391820422383840e-01  8.1647055893963440e-04  4.2149651760874408e-02  -5.3432077529651694e-03  -2.7367299440994655e-02  6.4491687463795799e-02  2.1896467190908070e-01  3.4135753731879426e-01  3.9269639846777610e-01  3.7399351241512047e-01  3.2779837777432302e-01  2.8788999389622127e-01  2.5734927016740466e-01  2.2793538322494863e-01  1.9540252372365916e-01  1.6117839372536269e-01  1.2766266051059783e-01  9.4867979281079318e-02  6.1982292752760973e-02  2.8773950688537105e-02  -4.7463562252874928e-03  -3.8512234056768478e-02  -7.2444213824222600e-02  -1.0633560530779208e-01  -1.3983497724364069e-01  -1.7329481618404105e-01  -2.0885336025441326e-01  -2.4733254173946834e-01  -2.8177496584999850e-01  -3.0586809074982801e-01  -3.3964157772988335e-01  -4.0355518815586933e-01  -4.3755977881143820e-01  -3.3883723792126452e-01  -1.0067360169215601e-01  4.9217938866580602e-02  2.7712465650098915e-03  -4.3669206064988432e-03  1.3430481362973881e-01  2.9186320369610136e-01  3.9301658698075093e-01  4.0876946475085230e-01  3.6950549772653635e-01  3.2378055867461569e-01  2.9114578257068280e-01  2.6278640271384163e-01  2.3070691677963978e-01  1.9615337702448915e-01  1.6264541882172751e-01  1.3024382978346508e-01  9.7510464332404609e-02  6.4260378435385887e-02  3.0768374411411392e-02  -2.8720322439403402e-03  -3.6649363488159704e-02  -7.0652001169413739e-02  -1.0497359866339130e-01  -1.3941266396743285e-01  -1.7303189446888864e-01  -2.0547207954041855e-01  -2.4035341979318189e-01  -2.8055790574010536e-01  -3.1557845270146850e-01  -3.3723173740490053e-01  -3.7806596879147658e-01  -4.4876574322169477e-01  -4.4027513367018556e-01  -2.4623915937652824e-01  2.0357724498461911e-02  2.8991639432525727e-02  2.6437779043657669e-02  2.0494788521710658e-01  3.5135585605841552e-01  4.2596932844339241e-01  4.1354435677529527e-01  3.6548744919569875e-01  3.2529010986630541e-01  2.9680989385758588e-01  2.6652383659377282e-01  2.3192550393052003e-01  1.9790338281442132e-01  1.6563906447672236e-01  1.3301585027237497e-01  9.9581816539114618e-02  6.6060556333665366e-02  3.2607634919644982e-02  -9.0501344634153608e-04  -3.4570278650425425e-02  -6.8397899559309139e-02  -1.0242977682714031e-01  -1.3697197124407501e-01  -1.7215611390722063e-01  -2.0638555416280011e-01  -2.3819486841981222e-01  -2.7329729515068157e-01  -3.1572741081178352e-01  -3.4817502803472072e-01  -3.6868942341881394e-01  -4.2732149944457087e-01  -4.8696681051085161e-01  -3.7876626851379447e-01  -5.9869370624526852e-02  5.7886335825630221e-02  5.6082689910647465e-02  2.6847146984115000e-01  3.9658716818855799e-01  4.4646989512155033e-01  4.1484232880129351e-01  3.6505492521211619e-01  3.3012898764103576e-01  3.0196454262694761e-01  2.6879499761004416e-01  2.3368947062435044e-01  2.0092008016029383e-01  1.6856580569883953e-01  1.3505227566859213e-01  1.0142175391426657e-01  6.8123676889272650e-02  3.4775107216081250e-02  1.2446474970223371e-03  -3.2445158665829553e-02  -6.6304123819199298e-02  -1.0027742946726872e-01  -1.3430132320218485e-01  -1.6892910199151931e-01  -2.0488722403076842e-01  -2.3964070190732195e-01  -2.7101354711027070e-01  -3.0859845195486729e-01  -3.5303263425328468e-01  -3.7754036986962131e-01  -4.0795623514996926e-01  -4.8812206143999259e-01  -4.7712703075653484e-01  -1.7799854256023176e-01  8.8050917027571340e-02  7.7231238465716459e-02  3.2077344969706506e-01  4.2922700395504748e-01  4.5986816375382383e-01  4.1635531247837460e-01  3.6774623464864753e-01  3.3582263335206880e-01  3.0596915136916419e-01  2.7088395059006565e-01  2.3638893726856053e-01  2.0404220541394727e-01  1.7085168020166289e-01  1.3698665246145514e-01  1.0368385491054706e-01  7.0513815383050849e-02  3.7095919178146697e-02  3.5638962429297861e-03  -3.0082352243723718e-02  -6.3917282561603242e-02  -9.8010063495830510e-02  -1.3228845928607838e-01  -1.6644489612264909e-01  -2.0134050977097553e-01  -2.3824270885631299e-01  -2.7270353578980999e-01  -3.0440363643779994e-01  -3.4826203041391179e-01  -3.8909701498390847e-01  -4.0561122056427890e-01  -4.6972824499192234e-01  -5.3293195383882375e-01  -3.0599684620553119e-01  1.0134455085440630e-01  8.6078383141494103e-02  3.5998888762381981e-01  4.5173411747232389e-01  4.6931403509149600e-01  4.1905107981018930e-01  3.7196850168449358e-01  3.4106709664714741e-01  3.0923132060712361e-01  2.7331375108692429e-01  2.3938100941478699e-01  2.0672182235720027e-01  1.7290865820990967e-01  1.3920769935178934e-01  1.0610754825028165e-01  7.2819192571547592e-02  3.9388539455282812e-02  5.9838870151831995e-03  -2.7542336462636329e-02  -6.1255757289692250e-02  -9.5208912022927139e-02  -1.2957096407103999e-01  -1.6427632708596818e-01  -1.9873736017133223e-01  -2.3453635635364456e-01  -2.7243538741124063e-01  -3.0510948236331631e-01  -3.4134088750989133e-01  -3.9260667801747934e-01  -4.1643435429650738e-01  -4.5205661070863490e-01  -5.5248578311698970e-01  -4.2040278791494917e-01  8.5547293154430715e-02  8.0684778382531505e-02  3.8627527865320277e-01  4.6567039796814469e-01  4.7650614109231010e-01  4.2246113437026478e-01  3.7646702801251053e-01  3.4539511609375062e-01  3.1214043552531423e-01  2.7590068798674627e-01  2.4215704273307467e-01  2.0903583355972030e-01  1.7499767152592213e-01  1.4150335066028299e-01  1.0839351252503156e-01  7.5059652600920831e-02  4.1790272815207738e-02  8.5496400178111508e-03  -2.4842872019254895e-02  -5.8409599243595935e-02  -9.2227740678434866e-02  -1.2636614724550532e-01  -1.6108276172004601e-01  -1.9624288636047213e-01  -2.3123827656802834e-01  -2.6905393684322276e-01  -3.0638042668249538e-01  -3.3784441260455733e-01  -3.8792741669451286e-01  -4.2993361363680960e-01  -4.4410647078123178e-01  -5.4886158141737096e-01  -5.1000622764081138e-01  4.3757569611621458e-02  6.4030652794603654e-02  3.9803073773717973e-01  4.7290083857083465e-01  4.8144330400974733e-01  4.2623077304537410e-01  3.8034694620501852e-01  3.4878889073716046e-01  3.1473719968971692e-01  2.7835012458259950e-01  2.4453852727170614e-01  2.1110935947586820e-01  1.7704090922309551e-01  1.4365236671910661e-01  1.1053886244620877e-01  7.7325876868240967e-02  4.4274928800519760e-02  1.1228243299450866e-02  -2.1950514094163098e-02  -5.5296500031583581e-02  -8.8906554537544785e-02  -1.2291484892545095e-01  -1.5736733268592745e-01  -1.9261244944111874e-01  -2.2816118808962493e-01  -2.6462159568982158e-01  -3.0480189911197719e-01  -3.3759937121810490e-01  -3.7985100562212415e-01  -4.3850817081652421e-01  -4.4588402935199245e-01  -5.3389362552657427e-01  -5.7495878763844510e-01  -1.0450684595029076e-02  4.1566270075939091e-02  3.9241354262113559e-01  4.7528029008284772e-01  4.8312406347031489e-01  4.3058528689428105e-01  3.8303342263395918e-01  3.5128668878239022e-01  3.1692937807946742e-01  2.8050223054661494e-01  2.4645385307619275e-01  2.1294376370163184e-01  1.7890531111290794e-01  1.4557344701302183e-01  1.1256328602481325e-01  7.9557798119996775e-02  4.6751145352546992e-02  1.3980161428176870e-02  -1.8875231981340428e-02  -5.1900628988153563e-02  -8.5198524946852650e-02  -1.1889293121410080e-01  -1.5321606500956686e-01  -1.8813196034242852e-01  -2.2404896941982241e-01  -2.6018394118515931e-01  -3.0023576150838338e-01  -3.3749452981063732e-01  -3.7223112391961782e-01  -4.3964628576296533e-01  -4.5338067019641837e-01  -5.1554752853718255e-01  -6.1943718035467898e-01  -6.4490941601271404e-02  1.5554005408833498e-02  3.6912142635948775e-01  4.7241861683305542e-01  4.8160064280779513e-01  4.3507138121888517e-01  3.8500541710691316e-01  3.5255179255197744e-01  3.1874922091906932e-01  2.8226865870435830e-01  2.4788570943843874e-01  2.1442260242798636e-01  1.8053650132870547e-01  1.4720883180870697e-01  1.1440373170901237e-01  8.1697861070673589e-02  4.9178820097832115e-02  1.6790013940859227e-02  -1.5638639779912960e-02  -4.8223414450153435e-02  -8.1079696331702741e-02  -1.1434296242287473e-01  -1.4828482475007604e-01  -1.8297474303365033e-01  -2.1856354846213322e-01  -2.5512016056884079e-01  -2.9398594340885215e-01  -3.3490821632681567e-01  -3.6589985345666609e-01  -4.3461541163077244e-01  -4.6179073921716141e-01  -4.9750216188966839e-01  -6.4777097881924406e-01  -1.1197387295928182e-01  -1.1281636429087831e-02  3.2842234978516527e-01  4.6230764705717525e-01  4.7748413573757320e-01  4.3876677283175819e-01  3.8728706742037755e-01  3.5243232243458816e-01  3.2001894947570825e-01  2.8371657580887832e-01  2.4883607272372102e-01  2.1542034763716394e-01  1.8184372492089154e-01  1.4854948877633178e-01  1.1593558866461678e-01  8.3648635979527333e-02  5.1548024679972229e-02  1.9621471331771289e-02  -1.2267906467297673e-02  -4.4265651900109629e-02  -7.6498489943892509e-02  -1.0922450869858093e-01  -1.4257482416160361e-01  -1.7685767043588632e-01  -2.1191149517295160e-01  -2.4851942775111197e-01  -2.8681900051172099e-01  -3.2886276358692063e-01  -3.5969484487954284e-01  -4.2570727323116531e-01  -4.6738113420769550e-01  -4.8040170790873787e-01  -6.6356174285654879e-01  -1.5129983067443153e-01  -3.3471843241170494e-02  2.7078862458565078e-01  4.4137206952163449e-01  4.7094872357498285e-01  4.4091041445134110e-01  3.9059817521508183e-01  3.5159863761753413e-01  3.2015615583199269e-01  2.8496367109797249e-01  2.4939924510444467e-01  2.1580905282607443e-01  1.8266160129388770e-01  1.4959334968510021e-01  1.1712649800557712e-01  8.5260004561528588e-02  5.3736975957832139e-02  2.2429836711682687e-02  -8.7744193896993235e-03  -4.0010274486736136e-02  -7.1493226925149075e-02  -1.0346516509037107e-01  -1.3605488313261860e-01  -1.6959641381950907e-01  -2.0407837869286957e-01  -2.4007718504742442e-01  -2.7849286068514628e-01  -3.1953380701754935e-01  -3.5196245825268752e-01  -4.1448945867264020e-01  -4.6818147895655082e-01  -4.6308494593449301e-01  -6.6943906873353576e-01  -1.8376617917070681e-01  -4.4735325995661615e-02  1.9899175401220359e-01  4.0467664541821330e-01  4.6050540746657687e-01  4.4123630404151337e-01  3.9476463372631082e-01  3.5153444453279259e-01  3.1877592083727446e-01  2.8560525911344170e-01  2.4990735531809694e-01  2.1557790937469423e-01  1.8268904216522364e-01  1.5014638666000743e-01  1.1800674411040205e-01  8.6531337927344923e-02  5.5634961734402764e-02  2.5105263731327630e-02  -5.2273251649009918e-03  -3.5542297965751299e-02  -6.6091565730019675e-02  -9.7044221419817625e-02  -1.2860888795933315e-01  -1.6119781811555878e-01  -1.9475711981095531e-01  -2.2999658306415346e-01  -2.6821566203455866e-01  -3.0746598342301934e-01  -3.4131229202532104e-01  -4.0155747854677665e-01  -4.6356736405285648e-01  -4.4361095586948007e-01  -6.6702537302765230e-01  -2.1220155792540257e-01  -4.2484633659350887e-02  1.2084515859727338e-01  3.4763153506396588e-01  4.4142899431780730e-01  4.3938342932022872e-01  3.9897874514941273e-01  3.5350631272654487e-01  3.1678067064562687e-01  2.8459888305721009e-01  2.5022047834295252e-01  2.1519460642875299e-01  1.8183780602558841e-01  1.4974329024563041e-01  1.1826913675038996e-01  8.7413053617720282e-02  5.7227774414044641e-02  2.7588933601311077e-02  -1.7168705528911637e-03  -3.0923205556549722e-02  -6.0252603657948031e-02  -8.9897726793911684e-02  -1.2025178749090380e-01  -1.5157140496608829e-01  -1.8383192860515987e-01  -2.1830396614450884e-01  -2.5558586482616114e-01  -2.9247238524350688e-01  -3.2729066422163566e-01  -3.8696132756694901e-01  -4.5315722980643752e-01  -4.2028248779085342e-01  -6.5693454547427654e-01  -2.3994498555618599e-01  -3.0569386922571763e-02  4.9380468238014535e-02  2.6931014109853219e-01  4.0583024305774779e-01  4.3287073310965285e-01  4.0243153033586115e-01  3.5747922865218190e-01  3.1619794950452479e-01  2.8188496098439164e-01  2.4896490910425198e-01  2.1462494042571301e-01  1.8066804993693916e-01  1.4837404501911297e-01  1.1745950379308383e-01  8.7487043844904799e-02  5.8294853559135960e-02  2.9759676091851733e-02  1.7020271867551715e-03  -2.6121454998939364e-02  -5.3963930107767386e-02  -8.2133769794981201e-02  -1.1098586442073309e-01  -1.4056564325003551e-01  -1.7142976184691430e-01  -2.0496692465269820e-01  -2.4013245957096294e-01  -2.7401377373232344e-01  -3.1043113326750493e-01  -3.7037335035677010e-01  -4.3640709429095392e-01  -3.9161646876292167e-01  -6.3902237807808093e-01  -2.7054320670212784e-01  -1.6712736685584061e-02  -5.9910754796984873e-04  1.7627353531466550e-01  3.4521594805740907e-01  4.1384794016207593e-01  4.0341932814522152e-01  3.6243506794417529e-01  3.1824979530898334e-01  2.7947664563612107e-01  2.4540199557001061e-01  2.1223513501821614e-01  1.7888625813674008e-01  1.4650158141398659e-01  1.1578473636910953e-01  8.6588247001879851e-02  5.8554691309664716e-02  3.1401561580065830e-02  4.8671158462461868e-03  -2.1315918217159547e-02  -4.7442706324024767e-02  -7.3805155834192934e-02  -1.0064678186680419