<?xml version="1.0"?>
<VTKFile type="UnstructuredGrid"  version="0.1"  >
<UnstructuredGrid>
<Piece  NumberOfPoints="1089" NumberOfCells="1024">
<Points>
<DataArray  type="Float64"  NumberOfComponents="3"  format="ascii">0 0 0  0.03125 0 0  0.0625 0 0  0.09375 0 0  0.125 0 0  0.15625 0 0  0.1875 0 0  0.21875 0 0  0.25 0 0  0.28125 0 0  0.3125 0 0  0.34375 0 0  0.375 0 0  0.40625 0 0  0.4375 0 0  0.46875 0 0  0.5 0 0  0.53125 0 0  0.5625 0 0  0.59375 0 0  0.625 0 0  0.65625 0 0  0.6875 0 0  0.71875 0 0  0.75 0 0  0.78125 0 0  0.8125 0 0  0.84375 0 0  0.875 0 0  0.90625 0 0  0.9375 0 0  0.96875 0 0  1 0 0  0 0.03125 0  0.03125 0.03125 0  0.0625 0.03125 0  0.09375 0.03125 0  0.125 0.03125 0  0.15625 0.03125 0  0.1875 0.03125 0  0.21875 0.03125 0  0.25 0.03125 0  0.28125 0.03125 0  0.3125 0.03125 0  0.34375 0.03125 0  0.375 0.03125 0  0.40625 0.03125 0  0.4375 0.03125 0  0.46875 0.03125 0  0.5 0.03125 0  0.53125 0.03125 0  0.5625 0.03125 0  0.59375 0.03125 0  0.625 0.03125 0  0.65625 0.03125 0  0.6875 0.03125 0  0.71875 0.03125 0  0.75 0.03125 0  0.78125 0.03125 0  0.8125 0.03125 0  0.84375 0.03125 0  0.875 0.03125 0  0.90625 0.03125 0  0.9375 0.03125 0  0.96875 0.03125 0  1 0.03125 0  0 0.0625 0  0.03125 0.0625 0  0.0625 0.0625 0  0.09375 0.0625 0  0.125 0.0625 0  0.15625 0.0625 0  0.1875 0.0625 0  0.21875 0.0625 0  0.25 0.0625 0  0.28125 0.0625 0  0.3125 0.0625 0  0.34375 0.0625 0  0.375 0.0625 0  0.40625 0.0625 0  0.4375 0.0625 0  0.46875 0.0625 0  0.5 0.0625 0  0.53125 0.0625 0  0.5625 0.0625 0  0.59375 0.0625 0  0.625 0.0625 0  0.65625 0.0625 0  0.6875 0.0625 0  0.71875 0.0625 0  0.75 0.0625 0  0.78125 0.0625 0  0.8125 0.0625 0  0.84375 0.0625 0  0.875 0.0625 0  0.90625 0.0625 0  0.9375 0.0625 0  0.96875 0.0625 0  1 0.0625 0  0 0.09375 0  0.03125 0.09375 0  0.0625 0.09375 0  0.09375 0.09375 0  0.125 0.09375 0  0.15625 0.09375 0  0.1875 0.09375 0  0.21875 0.09375 0  0.25 0.09375 0  0.28125 0.09375 0  0.3125 0.09375 0  0.34375 0.09375 0  0.375 0.09375 0  0.40625 0.09375 0  0.4375 0.09375 0  0.46875 0.09375 0  0.5 0.09375 0  0.53125 0.09375 0  0.5625 0.09375 0  0.59375 0.09375 0  0.625 0.09375 0  0.65625 0.09375 0  0.6875 0.09375 0  0.71875 0.09375 0  0.75 0.09375 0  0.78125 0.09375 0  0.8125 0.09375 0  0.84375 0.09375 0  0.875 0.09375 0  0.90625 0.09375 0  0.9375 0.09375 0  0.96875 0.09375 0  1 0.09375 0  0 0.125 0  0.03125 0.125 0  0.0625 0.125 0  0.09375 0.125 0  0.125 0.125 0  0.15625 0.125 0  0.1875 0.125 0  0.21875 0.125 0  0.25 0.125 0  0.28125 0.125 0  0.3125 0.125 0  0.34375 0.125 0  0.375 0.125 0  0.40625 0.125 0  0.4375 0.125 0  0.46875 0.125 0  0.5 0.125 0  0.53125 0.125 0  0.5625 0.125 0  0.59375 0.125 0  0.625 0.125 0  0.65625 0.125 0  0.6875 0.125 0  0.71875 0.125 0  0.75 0.125 0  0.78125 0.125 0  0.8125 0.125 0  0.84375 0.125 0  0.875 0.125 0  0.90625 0.125 0  0.9375 0.125 0  0.96875 0.125 0  1 0.125 0  0 0.15625 0  0.03125 0.15625 0  0.0625 0.15625 0  0.09375 0.15625 0  0.125 0.15625 0  0.15625 0.15625 0  0.1875 0.15625 0  0.21875 0.15625 0  0.25 0.15625 0  0.28125 0.15625 0  0.3125 0.15625 0  0.34375 0.15625 0  0.375 0.15625 0  0.40625 0.15625 0  0.4375 0.15625 0  0.46875 0.15625 0  0.5 0.15625 0  0.53125 0.15625 0  0.5625 0.15625 0  0.59375 0.15625 0  0.625 0.15625 0  0.65625 0.15625 0  0.6875 0.15625 0  0.71875 0.15625 0  0.75 0.15625 0  0.78125 0.15625 0  0.8125 0.15625 0  0.84375 0.15625 0  0.875 0.15625 0  0.90625 0.15625 0  0.9375 0.15625 0  0.96875 0.15625 0  1 0.15625 0  0 0.1875 0  0.03125 0.1875 0  0.0625 0.1875 0  0.09375 0.1875 0  0.125 0.1875 0  0.15625 0.1875 0  0.1875 0.1875 0  0.21875 0.1875 0  0.25 0.1875 0  0.28125 0.1875 0  0.3125 0.1875 0  0.34375 0.1875 0  0.375 0.1875 0  0.40625 0.1875 0  0.4375 0.1875 0  0.46875 0.1875 0  0.5 0.1875 0  0.53125 0.1875 0  0.5625 0.1875 0  0.59375 0.1875 0  0.625 0.1875 0  0.65625 0.1875 0  0.6875 0.1875 0  0.71875 0.1875 0  0.75 0.1875 0  0.78125 0.1875 0  0.8125 0.1875 0  0.84375 0.1875 0  0.875 0.1875 0  0.90625 0.1875 0  0.9375 0.1875 0  0.96875 0.1875 0  1 0.1875 0  0 0.21875 0  0.03125 0.21875 0  0.0625 0.21875 0  0.09375 0.21875 0  0.125 0.21875 0  0.15625 0.21875 0  0.1875 0.21875 0  0.21875 0.21875 0  0.25 0.21875 0  0.28125 0.21875 0  0.3125 0.21875 0  0.34375 0.21875 0  0.375 0.21875 0  0.40625 0.21875 0  0.4375 0.21875 0  0.46875 0.21875 0  0.5 0.21875 0  0.53125 0.21875 0  0.5625 0.21875 0  0.59375 0.21875 0  0.625 0.21875 0  0.65625 0.21875 0  0.6875 0.21875 0  0.71875 0.21875 0  0.75 0.21875 0  0.78125 0.21875 0  0.8125 0.21875 0  0.84375 0.21875 0  0.875 0.21875 0  0.90625 0.21875 0  0.9375 0.21875 0  0.96875 0.21875 0  1 0.21875 0  0 0.25 0  0.03125 0.25 0  0.0625 0.25 0  0.09375 0.25 0  0.125 0.25 0  0.15625 0.25 0  0.1875 0.25 0  0.21875 0.25 0  0.25 0.25 0  0.28125 0.25 0  0.3125 0.25 0  0.34375 0.25 0  0.375 0.25 0  0.40625 0.25 0  0.4375 0.25 0  0.46875 0.25 0  0.5 0.25 0  0.53125 0.25 0  0.5625 0.25 0  0.59375 0.25 0  0.625 0.25 0  0.65625 0.25 0  0.6875 0.25 0  0.71875 0.25 0  0.75 0.25 0  0.78125 0.25 0  0.8125 0.25 0  0.84375 0.25 0  0.875 0.25 0  0.90625 0.25 0  0.9375 0.25 0  0.96875 0.25 0  1 0.25 0  0 0.28125 0  0.03125 0.28125 0  0.0625 0.28125 0  0.09375 0.28125 0  0.125 0.28125 0  0.15625 0.28125 0  0.1875 0.28125 0  0.21875 0.28125 0  0.25 0.28125 0  0.28125 0.28125 0  0.3125 0.28125 0  0.34375 0.28125 0  0.375 0.28125 0  0.40625 0.28125 0  0.4375 0.28125 0  0.46875 0.28125 0  0.5 0.28125 0  0.53125 0.28125 0  0.5625 0.28125 0  0.59375 0.28125 0  0.625 0.28125 0  0.65625 0.28125 0  0.6875 0.28125 0  0.71875 0.28125 0  0.75 0.28125 0  0.78125 0.28125 0  0.8125 0.28125 0  0.84375 0.28125 0  0.875 0.28125 0  0.90625 0.28125 0  0.9375 0.28125 0  0.96875 0.28125 0  1 0.28125 0  0 0.3125 0  0.03125 0.3125 0  0.0625 0.3125 0  0.09375 0.3125 0  0.125 0.3125 0  0.15625 0.3125 0  0.1875 0.3125 0  0.21875 0.3125 0  0.25 0.3125 0  0.28125 0.3125 0  0.3125 0.3125 0  0.34375 0.3125 0  0.375 0.3125 0  0.40625 0.3125 0  0.4375 0.3125 0  0.46875 0.3125 0  0.5 0.3125 0  0.53125 0.3125 0  0.5625 0.3125 0  0.59375 0.3125 0  0.625 0.3125 0  0.65625 0.3125 0  0.6875 0.3125 0  0.71875 0.3125 0  0.75 0.3125 0  0.78125 0.3125 0  0.8125 0.3125 0  0.84375 0.3125 0  0.875 0.3125 0  0.90625 0.3125 0  0.9375 0.3125 0  0.96875 0.3125 0  1 0.3125 0  0 0.34375 0  0.03125 0.34375 0  0.0625 0.34375 0  0.09375 0.34375 0  0.125 0.34375 0  0.15625 0.34375 0  0.1875 0.34375 0  0.21875 0.34375 0  0.25 0.34375 0  0.28125 0.34375 0  0.3125 0.34375 0  0.34375 0.34375 0  0.375 0.34375 0  0.40625 0.34375 0  0.4375 0.34375 0  0.46875 0.34375 0  0.5 0.34375 0  0.53125 0.34375 0  0.5625 0.34375 0  0.59375 0.34375 0  0.625 0.34375 0  0.65625 0.34375 0  0.6875 0.34375 0  0.71875 0.34375 0  0.75 0.34375 0  0.78125 0.34375 0  0.8125 0.34375 0  0.84375 0.34375 0  0.875 0.34375 0  0.90625 0.34375 0  0.9375 0.34375 0  0.96875 0.34375 0  1 0.34375 0  0 0.375 0  0.03125 0.375 0  0.0625 0.375 0  0.09375 0.375 0  0.125 0.375 0  0.15625 0.375 0  0.1875 0.375 0  0.21875 0.375 0  0.25 0.375 0  0.28125 0.375 0  0.3125 0.375 0  0.34375 0.375 0  0.375 0.375 0  0.40625 0.375 0  0.4375 0.375 0  0.46875 0.375 0  0.5 0.375 0  0.53125 0.375 0  0.5625 0.375 0  0.59375 0.375 0  0.625 0.375 0  0.65625 0.375 0  0.6875 0.375 0  0.71875 0.375 0  0.75 0.375 0  0.78125 0.375 0  0.8125 0.375 0  0.84375 0.375 0  0.875 0.375 0  0.90625 0.375 0  0.9375 0.375 0  0.96875 0.375 0  1 0.375 0  0 0.40625 0  0.03125 0.40625 0  0.0625 0.40625 0  0.09375 0.40625 0  0.125 0.40625 0  0.15625 0.40625 0  0.1875 0.40625 0  0.21875 0.40625 0  0.25 0.40625 0  0.28125 0.40625 0  0.3125 0.40625 0  0.34375 0.40625 0  0.375 0.40625 0  0.40625 0.40625 0  0.4375 0.40625 0  0.46875 0.40625 0  0.5 0.40625 0  0.53125 0.40625 0  0.5625 0.40625 0  0.59375 0.40625 0  0.625 0.40625 0  0.65625 0.40625 0  0.6875 0.40625 0  0.71875 0.40625 0  0.75 0.40625 0  0.78125 0.40625 0  0.8125 0.40625 0  0.84375 0.40625 0  0.875 0.40625 0  0.90625 0.40625 0  0.9375 0.40625 0  0.96875 0.40625 0  1 0.40625 0  0 0.4375 0  0.03125 0.4375 0  0.0625 0.4375 0  0.09375 0.4375 0  0.125 0.4375 0  0.15625 0.4375 0  0.1875 0.4375 0  0.21875 0.4375 0  0.25 0.4375 0  0.28125 0.4375 0  0.3125 0.4375 0  0.34375 0.4375 0  0.375 0.4375 0  0.40625 0.4375 0  0.4375 0.4375 0  0.46875 0.4375 0  0.5 0.4375 0  0.53125 0.4375 0  0.5625 0.4375 0  0.59375 0.4375 0  0.625 0.4375 0  0.65625 0.4375 0  0.6875 0.4375 0  0.71875 0.4375 0  0.75 0.4375 0  0.78125 0.4375 0  0.8125 0.4375 0  0.84375 0.4375 0  0.875 0.4375 0  0.90625 0.4375 0  0.9375 0.4375 0  0.96875 0.4375 0  1 0.4375 0  0 0.46875 0  0.03125 0.46875 0  0.0625 0.46875 0  0.09375 0.46875 0  0.125 0.46875 0  0.15625 0.46875 0  0.1875 0.46875 0  0.21875 0.46875 0  0.25 0.46875 0  0.28125 0.46875 0  0.3125 0.46875 0  0.34375 0.46875 0  0.375 0.46875 0  0.40625 0.46875 0  0.4375 0.46875 0  0.46875 0.46875 0  0.5 0.46875 0  0.53125 0.46875 0  0.5625 0.46875 0  0.59375 0.46875 0  0.625 0.46875 0  0.65625 0.46875 0  0.6875 0.46875 0  0.71875 0.46875 0  0.75 0.46875 0  0.78125 0.46875 0  0.8125 0.46875 0  0.84375 0.46875 0  0.875 0.46875 0  0.90625 0.46875 0  0.9375 0.46875 0  0.96875 0.46875 0  1 0.46875 0  0 0.5 0  0.03125 0.5 0  0.0625 0.5 0  0.09375 0.5 0  0.125 0.5 0  0.15625 0.5 0  0.1875 0.5 0  0.21875 0.5 0  0.25 0.5 0  0.28125 0.5 0  0.3125 0.5 0  0.34375 0.5 0  0.375 0.5 0  0.40625 0.5 0  0.4375 0.5 0  0.46875 0.5 0  0.5 0.5 0  0.53125 0.5 0  0.5625 0.5 0  0.59375 0.5 0  0.625 0.5 0  0.65625 0.5 0  0.6875 0.5 0  0.71875 0.5 0  0.75 0.5 0  0.78125 0.5 0  0.8125 0.5 0  0.84375 0.5 0  0.875 0.5 0  0.90625 0.5 0  0.9375 0.5 0  0.96875 0.5 0  1 0.5 0  0 0.53125 0  0.03125 0.53125 0  0.0625 0.53125 0  0.09375 0.53125 0  0.125 0.53125 0  0.15625 0.53125 0  0.1875 0.53125 0  0.21875 0.53125 0  0.25 0.53125 0  0.28125 0.53125 0  0.3125 0.53125 0  0.34375 0.53125 0  0.375 0.53125 0  0.40625 0.53125 0  0.4375 0.53125 0  0.46875 0.53125 0  0.5 0.53125 0  0.53125 0.53125 0  0.5625 0.53125 0  0.59375 0.53125 0  0.625 0.53125 0  0.65625 0.53125 0  0.6875 0.53125 0  0.71875 0.53125 0  0.75 0.53125 0  0.78125 0.531
[...]
<PointData  Scalars="u_sol"> 
<DataArray  type="Float64"  Name="u_sol"  format="ascii">-4.3344694578592616e-05  -8.6975948980994616e-05  3.5556234312477113e-04  8.3945886586808487e-04  1.1140267604979571e-03  1.2562638881504463e-03  1.7247036918152511e-03  3.8344020310145926e-03  4.9300509062306565e-03  5.6458563010403180e-03  1.3496575796002913e-02  2.3480459643137112e-02  2.3578759422816467e-02  1.2576065113791850e-02  -3.4713194110310049e-03  -1.7503707500951156e-02  -2.4163076117462202e-02  -2.0495770852638324e-02  -6.2740752682519567e-03  1.5720248187954387e-02  3.9641729721963802e-02  5.7660225018570710e-02  6.0888561069803483e-02  4.6005963268812067e-02  2.2939724928609250e-02  4.7980596831844052e-03  -1.9872213145141356e-03  -1.5928904542606710e-03  -8.7943490341173497e-04  -6.0796240918019719e-04  -4.2117344732573375e-04  -1.7570098790414929e-04  1.4067720380322442e-05  -2.9455531127642022e-04  1.4205729661798088e-03  5.4766655683960528e-03  9.3101872446724188e-03  1.1109064533880480e-02  1.1805179028972566e-02  1.1383137571990637e-02  9.6233461861775713e-03  4.6692335498394839e-03  -1.3360788459139234e-02  -5.1000828835606041e-02  -1.0016408603906926e-01  -1.4734006099563698e-01  -1.8439963910446958e-01  -2.0812653220223676e-01  -2.1740111638506790e-01  -2.1205171684661780e-01  -1.9238135148299315e-01  -1.5927362814960336e-01  -1.1468571844358749e-01  -6.2492766608142007e-02  -9.2546492888776789e-03  3.7009579569010131e-02  6.7544521974374092e-02  7.5666929490536633e-02  6.5548748588071484e-02  4.5929182599081637e-02  2.6096560138841776e-02  1.2777526089712003e-02  5.3212680566728692e-03  1.6337466367779502e-03  1.3299363760931065e-04  -5.4164350390513450e-05  -5.6940434586876876e-04  2.7691138564811392e-03  8.7793528021287495e-03  1.2403023547625373e-02  1.2131014198374108e-02  8.5894994274346506e-03  8.5356112129266978e-04  -2.4030808519324112e-02  -7.4877825780449700e-02  -1.3943996247410786e-01  -2.0335036668041445e-01  -2.5852157552328664e-01  -3.0117340175938850e-01  -3.3107537071994553e-01  -3.4933805726982081e-01  -3.5724146594915357e-01  -3.5533449418154217e-01  -3.4338362325289418e-01  -3.2053955023550046e-01  -2.8570904354838661e-01  -2.3825554132108911e-01  -1.7935160709735526e-01  -1.1368475761013465e-01  -4.9872698875188297e-02  2.7508079904483223e-04  2.7079971156356769e-02  3.5406125436082021e-02  3.2205909587871333e-02  2.2177324634811403e-02  1.2376317423337738e-02  5.3338596514607046e-03  1.3007638571976624e-03  -2.3937349209353142e-04  -8.7272473494638897e-04  4.3730384452918027e-03  1.1094500431550467e-02  1.0405285412268091e-02  3.9058508128433011e-03  -1.2245806070728161e-02  -5.4365270019797678e-02  -1.2263387403015283e-01  -1.9823592325505857e-01  -2.6654868939408632e-01  -3.2103217834427483e-01  -3.6122784836982996e-01  -3.8925166842156206e-01  -4.0753435294213081e-01  -4.1828374872376201e-01  -4.2315157385024360e-01  -4.2323386602591506e-01  -4.1890638305630085e-01  -4.0934632134144983e-01  -3.9223524630371065e-01  -3.6372854363107876e-01  -3.1925413171167932e-01  -2.5600056399741516e-01  -1.7715953321612180e-01  -9.5053303755359683e-02  -2.9840702738965649e-02  3.0660510347610766e-03  1.5435388335528611e-02  1.8572067732573864e-02  1.3916961181110526e-02  7.7431943859703201e-03  2.1468473484265583e-03  -3.5427554918061947e-04  -9.9417622490314368e-04  6.0221249288005861e-03  9.5035543089151651e-03  1.0086255042547972e-03  -2.1181575159881023e-02  -7.1162881854795107e-02  -1.4640901960856267e-01  -2.2541440092108167e-01  -2.9229554715990036e-01  -3.4138690556925527e-01  -3.7359090870275719e-01  -3.9266824617796992e-01  -4.0274611327471532e-01  -4.0739717655817548e-01  -4.0928616303388216e-01  -4.1019008015190972e-01  -4.1113965569138811e-01  -4.1260174935609234e-01  -4.1452112111460776e-01  -4.1574470712621059e-01  -4.1298325430917798e-01  -3.9980766426636777e-01  -3.6713301396273462e-01  -3.0680576581694990e-01  -2.1883403407502142e-01  -1.1852274288199995e-01  -3.6764813440719801e-02  -9.9065463725971407e-04  8.2223871974966087e-03  1.1069767308704201e-02  6.9928565666512931e-03  2.4740085522848418e-03  -4.2801360411240017e-04  -2.3214844315095585e-04  5.7633117276591674e-03  1.2512325348825969e-03  -2.2892443502815604e-02  -7.2849320263472739e-02  -1.4799576360028657e-01  -2.2671497493361717e-01  -2.9052862195061446e-01  -3.3339178362221400e-01  -3.5711358254593234e-01  -3.6719451187346475e-01  -3.6964756263449550e-01  -3.6913289248285563e-01  -3.6826082004589061e-01  -3.6794846129773029e-01  -3.6827892341788621e-01  -3.6917694266818807e-01  -3.7077418683431662e-01  -3.7363606462492921e-01  -3.7860323277391633e-01  -3.8599921780752744e-01  -3.9392135468540523e-01  -3.9569527845562946e-01  -3.7885342054859389e-01  -3.2898638598896407e-01  -2.4029082628739337e-01  -1.2799736797947336e-01  -3.3840028374899203e-02  9.8660927647501156e-04  4.8496647994175400e-03  6.6407583930184208e-03  1.7715583580548266e-03  -3.0282141259786158e-04  1.1536024069083602e-03  1.6861725021054910e-03  -1.7734713754209024e-02  -6.3097084022919775e-02  -1.3251259532512416e-01  -2.0904061597783358e-01  -2.7091246548336334e-01  -3.0993719793454860e-01  -3.2833725485488274e-01  -3.3329144467092581e-01  -3.3270725701784187e-01  -3.3185402140890441e-01  -3.3259791629605195e-01  -3.3461238107715258e-01  -3.3701518779894735e-01  -3.3917963478477070e-01  -3.4088152521239684e-01  -3.4218599099538871e-01  -3.4326165287144372e-01  -3.4452852064906975e-01  -3.4702947095010339e-01  -3.5249022628571658e-01  -3.6183048045160976e-01  -3.7086011520694234e-01  -3.6591986531433396e-01  -3.2643774506160866e-01  -2.3973342539014886e-01  -1.1965008837484233e-01  -2.2775285968403267e-02  4.5240378188032664e-03  1.4060363644531379e-03  1.7432947706971379e-03  -3.0239462350418859e-04  2.4751820999919325e-03  -7.9945011847558419e-03  -4.5298750577849170e-02  -1.0573023203011145e-01  -1.7759459072340222e-01  -2.3939333549480854e-01  -2.7818524849762277e-01  -2.9516088136728386e-01  -2.9844584466781970e-01  -2.9745210071774403e-01  -2.9784352613377768e-01  -3.0049205304531673e-01  -3.0406634150043360e-01  -3.0739751494398604e-01  -3.1015234971629829e-01  -3.1246858689153567e-01  -3.1458402144895936e-01  -3.1664059902779501e-01  -3.1862353375177999e-01  -3.2029953366727998e-01  -3.2132600462578881e-01  -3.2183518460606547e-01  -3.2358329701185751e-01  -3.2987029684547720e-01  -3.4024012160422290e-01  -3.4146740577529783e-01  -3.0722023091310224e-01  -2.1945175578345646e-01  -9.2118977128144403e-02  -8.7193107785971530e-03  6.1204789676570235e-03  2.9945373237696207e-03  -8.3188419932791156e-04  3.1047439179514142e-03  -2.0998489802778492e-02  -7.1873168383367783e-02  -1.3635662745700755e-01  -1.9833443785359550e-01  -2.4047667975751233e-01  -2.5971913725916590e-01  -2.6385552083213171e-01  -2.6326426579948536e-01  -2.6451447262638161e-01  -2.6805020807612479e-01  -2.7191469946688468e-01  -2.7500066088086544e-01  -2.7738214284908502e-01  -2.7947451335501244e-01  -2.8155904425774098e-01  -2.8376605481370260e-01  -2.8615959031702776e-01  -2.8880380190653870e-01  -2.9169906987191407e-01  -2.9457676149583562e-01  -2.9667961973900453e-01  -2.9711136432578833e-01  -2.9670013064872108e-01  -2.9994437443251981e-01  -3.0960976245330746e-01  -3.1243251573071301e-01  -2.7611029839175216e-01  -1.8103663659284272e-01  -4.9750738561132435e-02  3.4189307385435051e-03  -5.0248824369613964e-03  2.0279850818504088e-03  3.2879973976220303e-03  -3.1993290743260835e-02  -8.9188583036316063e-02  -1.4881313827881981e-01  -1.9626738153881365e-01  -2.2140526734423324e-01  -2.2887137585661355e-01  -2.2929249195655577e-01  -2.3077516630745928e-01  -2.3462467547083216e-01  -2.3856163890511417e-01  -2.4148738926821725e-01  -2.4377562863014862e-01  -2.4598189582329363e-01  -2.4828401609612341e-01  -2.5065793692284938e-01  -2.5306609704203686e-01  -2.5551576509888746e-01  -2.5805204645993229e-01  -2.6076842984080706e-01  -2.6379684106163009e-01  -2.6710795270337734e-01  -2.6998497269406108e-01  -2.7085888487903503e-01  -2.6953760578328628e-01  -2.7117020984184181e-01  -2.8041252425604313e-01  -2.8061535197366561e-01  -2.3384314956361499e-01  -1.2295672724740414e-01  -1.3881593364778524e-02  1.4282094425136191e-02  -1.7261620690682232e-03  3.2020733780846514e-03  -3.7605820425290877e-02  -9.4207363068004604e-02  -1.4443008418249337e-01  -1.7821473968677598e-01  -1.9206707428455688e-01  -1.9496464379275086e-01  -1.9652761443521538e-01  -2.0035097086205106e-01  -2.0458458367159071e-01  -2.0770223547328709e-01  -2.1017555579768990e-01  -2.1266012212022040e-01  -2.1527878080720553e-01  -2.1791889868706874e-01  -2.2053187828527604e-01  -2.2312732491729861e-01  -2.2573253953476330e-01  -2.2835054234543187e-01  -2.3096159100661839e-01  -2.3357874494364933e-01  -2.3635823554550303e-01  -2.3951080750305431e-01  -2.4251775494065117e-01  -2.4338333871784415e-01  -2.4139983336806209e-01  -2.4293297578174886e-01  -2.5229392576087306e-01  -2.4385480493158815e-01  -1.7695709948832436e-01  -4.8402305063840370e-02  6.4286462490147599e-03  -7.2562531697128573e-03  3.0632312576476437e-03  -3.7142512075618625e-02  -8.8310289975793252e-02  -1.2811008450521352e-01  -1.5147632381790396e-01  -1.5945651506763145e-01  -1.6201467523424207e-01  -1.6551667988858693e-01  -1.7011035823034151e-01  -1.7376334715203276e-01  -1.7653069816673753e-01  -1.7923799442027838e-01  -1.8205067060143099e-01  -1.8482446231619171e-01  -1.8751795544482283e-01  -1.9018552814861928e-01  -1.9287968283950946e-01  -1.9562868264160257e-01  -1.9843579137813791e-01  -2.0127334407380512e-01  -2.0405798662740593e-01  -2.0669495296067208e-01  -2.0929338391119157e-01  -2.1223690164411158e-01  -2.1505857247629032e-01  -2.1524014567670555e-01  -2.1252138882768434e-01  -2.1575294338558615e-01  -2.2296154467847779e-01  -1.9658487559729651e-01  -9.7492200372702842e-02  -1.6515194172316235e-02  -2.9087165489266327e-04  2.9512513765715376e-03  -3.1713623856602660e-02  -7.4790323397194269e-02  -1.0504292477771898e-01  -1.2140766056840827e-01  -1.2707299333571501e-01  -1.3060282198959527e-01  -1.3516272181443059e-01  -1.3954855265000574e-01  -1.4279871793897556e-01  -1.4568418389036839e-01  -1.4862841977120173e-01  -1.5150257476833395e-01  -1.5425649282920820e-01  -1.5697023215257391e-01  -1.5971174176145272e-01  -1.6250871611397649e-01  -1.6537360630705164e-01  -1.6830998796560320e-01  -1.7131178362988425e-01  -1.7434663096079925e-01  -1.7730542572778704e-01  -1.8000256309487239e-01  -1.8251137684231553e-01  -1.8536209254565528e-01  -1.8775788942550167e-01  -1.8641254523618295e-01  -1.8378744958708793e-01  -1.8990179334269580e-01  -1.8737558062418164e-01  -1.2475768716893484e-01  -1.2109649493482992e-02  1.6487235596974126e-02  2.9091598900098633e-03  -2.3014325747770667e-02  -5.6924651592065209e-02  -7.9128540886588120e-02  -9.1016471272150984e-02  -9.6010561086567150e-02  -1.0035285854791405e-01  -1.0508613775093426e-01  -1.0905769308230893e-01  -1.1218401369845719e-01  -1.1518920413474490e-01  -1.1813659212184301e-01  -1.2093443775284789e-01  -1.2366208606433703e-01  -1.2641341068187573e-01  -1.2922444078785097e-01  -1.3211473715487815e-01  -1.3509895981979145e-01  -1.3817949800947932e-01  -1.4134325420380728e-01  -1.4456705797000818e-01  -1.4781315109093288e-01  -1.5095566373534128e-01  -1.5373327062068304e-01  -1.5626613607040205e-01  -1.5915692489649180e-01  -1.6050793975464275e-01  -1.5698587286300200e-01  -1.5717025730973047e-01  -1.6190549230634263e-01  -1.3015479644911770e-01  -1.9904541974510744e-02  2.1493457044751155e-02  2.8691526812637089e-03  -1.2545005256202059e-02  -3.7097924327879069e-02  -5.2646142976634981e-02  -6.1524100381059724e-02  -6.6318626643460610e-02  -7.0835840353699650e-02  -7.5233845220794501e-02  -7.8814544187656294e-02  -8.1864255746946960e-02  -8.4822601002921577e-02  -8.7647529452096876e-02  -9.0356117606957054e-02  -9.3059250055242820e-02  -9.5816575721061864e-02  -9.8657880403205833e-02  -1.0161721704283591e-01  -1.0471792324837893e-01  -1.0796514097783011e-01  -1.1134556537676039e-01  -1.1482727490237238e-01  -1.1836414004155535e-01  -1.2189955836317007e-01  -1.2527145580683591e-01  -1.2818195099157015e-01  -1.3097889531933093e-01  -1.3389105103994783e-01  -1.3286576248066898e-01  -1.2929117690550473e-01  -1.3426578612880080e-01  -1.2254235776929082e-01  -3.5040251839201529e-02  1.6944079162324682e-02  2.8096643241647457e-03  -1.4120903749834470e-03  -1.6738221212548265e-02  -2.6660160513108690e-02  -3.3208561504445233e-02  -3.7706529124498608e-02  -4.1942991715749452e-02  -4.5809859890503478e-02  -4.9026895666165075e-02  -5.1903040478262621e-02  -5.4656817252497700e-02  -5.7278023123301963e-02  -5.9843710118503292e-02  -6.2444960950567591e-02  -6.5134742720803399e-02  -6.7961800145832640e-02  -7.0970053295404109e-02  -7.4181067118893357e-02  -7.7604268221315567e-02  -8.1232366298504319e-02  -8.5036338802660302e-02  -8.8971359208870268e-02  -9.2971052084298997e-02  -9.6941857066102671e-02  -1.0064444105122793e-01  -1.0387226074818250e-01  -1.0739129498778849e-01  -1.0938461233264091e-01  -1.0596916673334986e-01  -1.0870076335408538e-01  -1.1182786368730441e-01  -5.3410670282952974e-02  9.7140054056749758e-03  2.3154926082327438e-03  9.4069925106380226e-03  3.5592115724501286e-03  -1.5434465560739180e-03  -5.8255692198915521e-03  -9.9056403249503499e-03  -1.3480406548918899e-02  -1.6667864630199578e-02  -1.9438773864832424e-02  -2.2015567010700225e-02  -2.4466851212126734e-02  -2.6840846951541961e-02  -2.9219916000611548e-02  -3.1679684983790507e-02  -3.4281120225091243e-02  -3.7081601215739425e-02  -4.0120157878989753e-02  -4.3429015224803753e-02  -4.7033312148348404e-02  -5.0934195492831839e-02  -5.5108583299898532e-02  -5.9510493006562429e-02  -6.4087989562627470e-02  -6.8745803341686756e-02  -7.3362107033096272e-02  -7.7581571578412417e-02  -8.1717124584736164e-02  -8.6040877402709187e-02  -8.5425812412732727e-02  -8.6688834012746102e-02  -9.7670102958797356e-02  -6.4547736710019246e-02  3.1687467381720210e-03  1.5233198792507414e-03  1.9329545679286086e-02  2.3246083405889514e-02  2.2771908780855946e-02  2.0897723233039508e-02  1.7388395237664601e-02  1.4514254646199378e-02  1.2025612107537191e-02  9.7359198499730286e-03  7.5399943794723897e-03  5.4756157953459086e-03  3.4401582490237604e-03  1.3455845870022950e-03  -8.7423608328289547e-04  -3.2954455022229812e-03  -5.9821421889144572e-03  -8.9901581670985328e-03  -1.2378092428472967e-02  -1.6166165960194007e-02  -2.0354013358337197e-02  -2.4941391534184135e-02  -2.9883143737404406e-02  -3.5136434359722538e-02  -4.0608282690312886e-02  -4.6199865059975177e-02  -5.1720400442715628e-02  -5.6916876214555823e-02  -6.2845366759297874e-02  -6.5893379495486848e-02  -6.6645256658427590e-02  -8.1291026581118128e-02  -6.5939088556497757e-02  -5.9017375168056473e-04  2.8940701433642624e-04  2.7418259528172045e-02  4.1895216572452113e-02  4.6387496768874464e-02  4.7247158699560879e-02  4.4507789839933608e-02  4.2319540775357094e-02  4.0682565411517720e-02  3.9017280051457361e-02  3.7289089415012515e-02  3.5666325814288330e-02  3.4024474850210769e-02  3.2256221976522441e-02  3.0304507748995436e-02  2.8085015558557885e-02  2.5516101030620242e-02  2.2524347916205948e-02  1.9064446083807925e-02  1.5109950085699876e-02  1.0622005446194344e-02  5.5935222065886560e-03  5.8122809255680456e-05  -5.9509920525248009e-03  -1.2362684822696118e-02  -1.9057319026744547e-02  -2.5961247970650789e-02  -3.2712399869480296e-02  -3.9971793784705105e-02  -4.6486714015239336e-02  -4.8308404163479569e-02  -6.3318194889096763e-02  -6.0154542195872088e-02  -2.9120384550207290e-03  -1.5811961576218782e-03  3.2291492538455056e-02  5.8836098522144116e-02  6.9229447413172107e-02  7.3299722143057980e-02  7.1717873069601715e-02  6.9859456898598835e-02  6.8865685947677668e-02  6.7823537909236661e-02  6.6595237315909980e-02  6.5455789958025326e-02  6.4323094505890188e-02  6.3020965843111842e-02  6.1477197273127629e-02  5.9598626340194513e-02  5.7285096445407982e-02  5.4445754164908787e-02  5.1022327096132705e-02  4.6932541900983706e-02  4.2132903811126950e-02  3.6647426868628229e-02  3.0470465152976040e-02  2.3628565015023542e-02  1.6194667235191220e-02  8.2526487727855556e-03  -1.1430867951615983e-04  -8.7150692281156173e-03  -1.7437622129228655e-02  -2.6876692108425512e-02  -3.0867665080469935e-02  -4.6146627198492461e-02  -5.1377436401781280e-02  -4.0671776070956966e-03  -4.2487462558872509e-03  3.2562055976318192e-02  7.2957994416629535e-02  9.1083428247453052e-02  9.9152599351307893e-02  9.9265357086696024e-02  9.7717617459287642e-02  9.7323229390367014e-02  9.7113502852372344e-02  9.6536245809908966e-02  9.5922062160816668e-02  9.5326919815953814e-02  9.4544071336212232e-02  9.3433837814392767e-02  9.1904773957162442e-02  8.9840287159032597e-02  8.7133342149253501e-02  8.3684042459124322e-02  7.9418304180133070e-02  7.4346200099241769e-02  6.8400972150431935e-02  6.1542279647093329e-02  5.3812340111850099e-02  4.5277485525592201e-02  3.5961138760894552e-02  2.6018710378187881e-02  1.5390894013459408e-02  4.8680565537141075e-03  -7.1239181045117074e-03  -1.4372904184919624e-02  -3.0348350900670222e-02  -4.2211673787721490e-02  -5.0071339004615573e-03  -7.3079808083517323e-03  2.7898310179735746e-02  8.2894668274188912e-02  1.1110094802728142e-01  1.2433203240393578e-01  1.2700502773622008e-01  1.2555642632560660e-01  1.2500632349746787e-01  1.2537657479201916e-01  1.2554684214115802e-01  1.2555126816493262e-01  1.2560592596077469e-01  1.2554520835165769e-01  1.2512798551191046e-01  1.2418839575306624e-01  1.2259983395385930e-01  1.2023171516903272e-01  1.1697746937889660e-01  1.1276497300036348e-01  1.0748275735681168e-01  1.0103172146775508e-01  9.3481061156676024e-02  8.4832764081597636e-02  7.5123773316355683e-02  6.4340552359638009e-02  5.2637918190963737e-02  3.9916482773939013e-02  2.7181077820739107e-02  1.2771102181403607e-02  1.6627708818551150e-03  -1.6601761257091643e-02  -3.4095022959584845e-02  -5.6564842674699158e-03  -9.2651231856488211e-03  2.0472968288405644e-02  8.6676176497580026e-02  1.2773401021410116e-01  1.4808580207014041e-01  1.5465985611518279e-01  1.5440815509614333e-01  1.5374191182174637e-01  1.5460776745802682e-01  1.5580559538438207e-01  1.5670535371617431e-01  1.5745747417033198e-01  1.5808720874485693e-01  1.5835819444917154e-01  1.5802097170114968e-01  1.5688665032366347e-01  1.5480682148687894e-01  1.5165378183003367e-01  1.4728824243759370e-01  1.4165024732987630e-01  1.3475134663232971e-01  1.2655716564679073e-01  1.1694880816347103e-01  1.0600800401096175e-01  9.3657926121607199e-02  8.0032320653766989e-02  6.5125316069924860e-02  4.9882761887797694e-02  3.2927518106233657e-02  1.7272219619776902e-02  -4.3809258659662266e-03  -2.7422223080232223e-02  -6.4215938894737453e-03  -7.6456396541287764e-03  1.4019391644023535e-02  8.1406301109147219e-02  1.3746881593095128e-01  1.6798498239861079e-01  1.8051324708356822e-01  1.8237796040727025e-01  1.8122095171022085e-01  1.8158445832044984e-01  1.8348895396031617e-01  1.8563631434354627e-01  1.8755845008431568e-01  1.8923068204769550e-01  1.9052242244065160e-01  1.9115773074955447e-01  1.9087372142179126e-01  1.8945843027701600e-01  1.8675616368815928e-01  1.8266947868394071e-01  1.7711169904579521e-01  1.6992025013760328e-01  1.6102239430943199e-01  1.5043687540217146e-01  1.3823390371684624e-01  1.2418516117423316e-01  1.0853328661397699e-01  9.1375758715099023e-02  7.3457024370471691e-02  5.3596455183053240e-02  3.2908456780553687e-02  6.3760640766757394e-03  -2.2366890633372973e-02  -7.0647424663565486e-03  -1.9362787562029976e-03  9.8327272791690987e-03  6.4595306096227587e-02  1.3585397378223804e-01  1.8077546261991559e-01  2.0292992854629952e-01  2.1046472118934825e-01  2.1126969932289305e-01  2.1161030089603688e-01  2.1388895057252044e-01  2.1735858789781079e-01  2.2083641960508346e-01  2.2381430542326491e-01  2.2611709766929688e-01  2.2756715660000332e-01  2.2793043868605944e-01  2.269