<?xml version="1.0"?>
<VTKFile type="UnstructuredGrid"  version="0.1"  >
<UnstructuredGrid>
<Piece  NumberOfPoints="1089" NumberOfCells="1024">
<Points>
<DataArray  type="Float64"  NumberOfComponents="3"  format="ascii">0 0 0  0.03125 0 0  0.0625 0 0  0.09375 0 0  0.125 0 0  0.15625 0 0  0.1875 0 0  0.21875 0 0  0.25 0 0  0.28125 0 0  0.3125 0 0  0.34375 0 0  0.375 0 0  0.40625 0 0  0.4375 0 0  0.46875 0 0  0.5 0 0  0.53125 0 0  0.5625 0 0  0.59375 0 0  0.625 0 0  0.65625 0 0  0.6875 0 0  0.71875 0 0  0.75 0 0  0.78125 0 0  0.8125 0 0  0.84375 0 0  0.875 0 0  0.90625 0 0  0.9375 0 0  0.96875 0 0  1 0 0  0 0.03125 0  0.03125 0.03125 0  0.0625 0.03125 0  0.09375 0.03125 0  0.125 0.03125 0  0.15625 0.03125 0  0.1875 0.03125 0  0.21875 0.03125 0  0.25 0.03125 0  0.28125 0.03125 0  0.3125 0.03125 0  0.34375 0.03125 0  0.375 0.03125 0  0.40625 0.03125 0  0.4375 0.03125 0  0.46875 0.03125 0  0.5 0.03125 0  0.53125 0.03125 0  0.5625 0.03125 0  0.59375 0.03125 0  0.625 0.03125 0  0.65625 0.03125 0  0.6875 0.03125 0  0.71875 0.03125 0  0.75 0.03125 0  0.78125 0.03125 0  0.8125 0.03125 0  0.84375 0.03125 0  0.875 0.03125 0  0.90625 0.03125 0  0.9375 0.03125 0  0.96875 0.03125 0  1 0.03125 0  0 0.0625 0  0.03125 0.0625 0  0.0625 0.0625 0  0.09375 0.0625 0  0.125 0.0625 0  0.15625 0.0625 0  0.1875 0.0625 0  0.21875 0.0625 0  0.25 0.0625 0  0.28125 0.0625 0  0.3125 0.0625 0  0.34375 0.0625 0  0.375 0.0625 0  0.40625 0.0625 0  0.4375 0.0625 0  0.46875 0.0625 0  0.5 0.0625 0  0.53125 0.0625 0  0.5625 0.0625 0  0.59375 0.0625 0  0.625 0.0625 0  0.65625 0.0625 0  0.6875 0.0625 0  0.71875 0.0625 0  0.75 0.0625 0  0.78125 0.0625 0  0.8125 0.0625 0  0.84375 0.0625 0  0.875 0.0625 0  0.90625 0.0625 0  0.9375 0.0625 0  0.96875 0.0625 0  1 0.0625 0  0 0.09375 0  0.03125 0.09375 0  0.0625 0.09375 0  0.09375 0.09375 0  0.125 0.09375 0  0.15625 0.09375 0  0.1875 0.09375 0  0.21875 0.09375 0  0.25 0.09375 0  0.28125 0.09375 0  0.3125 0.09375 0  0.34375 0.09375 0  0.375 0.09375 0  0.40625 0.09375 0  0.4375 0.09375 0  0.46875 0.09375 0  0.5 0.09375 0  0.53125 0.09375 0  0.5625 0.09375 0  0.59375 0.09375 0  0.625 0.09375 0  0.65625 0.09375 0  0.6875 0.09375 0  0.71875 0.09375 0  0.75 0.09375 0  0.78125 0.09375 0  0.8125 0.09375 0  0.84375 0.09375 0  0.875 0.09375 0  0.90625 0.09375 0  0.9375 0.09375 0  0.96875 0.09375 0  1 0.09375 0  0 0.125 0  0.03125 0.125 0  0.0625 0.125 0  0.09375 0.125 0  0.125 0.125 0  0.15625 0.125 0  0.1875 0.125 0  0.21875 0.125 0  0.25 0.125 0  0.28125 0.125 0  0.3125 0.125 0  0.34375 0.125 0  0.375 0.125 0  0.40625 0.125 0  0.4375 0.125 0  0.46875 0.125 0  0.5 0.125 0  0.53125 0.125 0  0.5625 0.125 0  0.59375 0.125 0  0.625 0.125 0  0.65625 0.125 0  0.6875 0.125 0  0.71875 0.125 0  0.75 0.125 0  0.78125 0.125 0  0.8125 0.125 0  0.84375 0.125 0  0.875 0.125 0  0.90625 0.125 0  0.9375 0.125 0  0.96875 0.125 0  1 0.125 0  0 0.15625 0  0.03125 0.15625 0  0.0625 0.15625 0  0.09375 0.15625 0  0.125 0.15625 0  0.15625 0.15625 0  0.1875 0.15625 0  0.21875 0.15625 0  0.25 0.15625 0  0.28125 0.15625 0  0.3125 0.15625 0  0.34375 0.15625 0  0.375 0.15625 0  0.40625 0.15625 0  0.4375 0.15625 0  0.46875 0.15625 0  0.5 0.15625 0  0.53125 0.15625 0  0.5625 0.15625 0  0.59375 0.15625 0  0.625 0.15625 0  0.65625 0.15625 0  0.6875 0.15625 0  0.71875 0.15625 0  0.75 0.15625 0  0.78125 0.15625 0  0.8125 0.15625 0  0.84375 0.15625 0  0.875 0.15625 0  0.90625 0.15625 0  0.9375 0.15625 0  0.96875 0.15625 0  1 0.15625 0  0 0.1875 0  0.03125 0.1875 0  0.0625 0.1875 0  0.09375 0.1875 0  0.125 0.1875 0  0.15625 0.1875 0  0.1875 0.1875 0  0.21875 0.1875 0  0.25 0.1875 0  0.28125 0.1875 0  0.3125 0.1875 0  0.34375 0.1875 0  0.375 0.1875 0  0.40625 0.1875 0  0.4375 0.1875 0  0.46875 0.1875 0  0.5 0.1875 0  0.53125 0.1875 0  0.5625 0.1875 0  0.59375 0.1875 0  0.625 0.1875 0  0.65625 0.1875 0  0.6875 0.1875 0  0.71875 0.1875 0  0.75 0.1875 0  0.78125 0.1875 0  0.8125 0.1875 0  0.84375 0.1875 0  0.875 0.1875 0  0.90625 0.1875 0  0.9375 0.1875 0  0.96875 0.1875 0  1 0.1875 0  0 0.21875 0  0.03125 0.21875 0  0.0625 0.21875 0  0.09375 0.21875 0  0.125 0.21875 0  0.15625 0.21875 0  0.1875 0.21875 0  0.21875 0.21875 0  0.25 0.21875 0  0.28125 0.21875 0  0.3125 0.21875 0  0.34375 0.21875 0  0.375 0.21875 0  0.40625 0.21875 0  0.4375 0.21875 0  0.46875 0.21875 0  0.5 0.21875 0  0.53125 0.21875 0  0.5625 0.21875 0  0.59375 0.21875 0  0.625 0.21875 0  0.65625 0.21875 0  0.6875 0.21875 0  0.71875 0.21875 0  0.75 0.21875 0  0.78125 0.21875 0  0.8125 0.21875 0  0.84375 0.21875 0  0.875 0.21875 0  0.90625 0.21875 0  0.9375 0.21875 0  0.96875 0.21875 0  1 0.21875 0  0 0.25 0  0.03125 0.25 0  0.0625 0.25 0  0.09375 0.25 0  0.125 0.25 0  0.15625 0.25 0  0.1875 0.25 0  0.21875 0.25 0  0.25 0.25 0  0.28125 0.25 0  0.3125 0.25 0  0.34375 0.25 0  0.375 0.25 0  0.40625 0.25 0  0.4375 0.25 0  0.46875 0.25 0  0.5 0.25 0  0.53125 0.25 0  0.5625 0.25 0  0.59375 0.25 0  0.625 0.25 0  0.65625 0.25 0  0.6875 0.25 0  0.71875 0.25 0  0.75 0.25 0  0.78125 0.25 0  0.8125 0.25 0  0.84375 0.25 0  0.875 0.25 0  0.90625 0.25 0  0.9375 0.25 0  0.96875 0.25 0  1 0.25 0  0 0.28125 0  0.03125 0.28125 0  0.0625 0.28125 0  0.09375 0.28125 0  0.125 0.28125 0  0.15625 0.28125 0  0.1875 0.28125 0  0.21875 0.28125 0  0.25 0.28125 0  0.28125 0.28125 0  0.3125 0.28125 0  0.34375 0.28125 0  0.375 0.28125 0  0.40625 0.28125 0  0.4375 0.28125 0  0.46875 0.28125 0  0.5 0.28125 0  0.53125 0.28125 0  0.5625 0.28125 0  0.59375 0.28125 0  0.625 0.28125 0  0.65625 0.28125 0  0.6875 0.28125 0  0.71875 0.28125 0  0.75 0.28125 0  0.78125 0.28125 0  0.8125 0.28125 0  0.84375 0.28125 0  0.875 0.28125 0  0.90625 0.28125 0  0.9375 0.28125 0  0.96875 0.28125 0  1 0.28125 0  0 0.3125 0  0.03125 0.3125 0  0.0625 0.3125 0  0.09375 0.3125 0  0.125 0.3125 0  0.15625 0.3125 0  0.1875 0.3125 0  0.21875 0.3125 0  0.25 0.3125 0  0.28125 0.3125 0  0.3125 0.3125 0  0.34375 0.3125 0  0.375 0.3125 0  0.40625 0.3125 0  0.4375 0.3125 0  0.46875 0.3125 0  0.5 0.3125 0  0.53125 0.3125 0  0.5625 0.3125 0  0.59375 0.3125 0  0.625 0.3125 0  0.65625 0.3125 0  0.6875 0.3125 0  0.71875 0.3125 0  0.75 0.3125 0  0.78125 0.3125 0  0.8125 0.3125 0  0.84375 0.3125 0  0.875 0.3125 0  0.90625 0.3125 0  0.9375 0.3125 0  0.96875 0.3125 0  1 0.3125 0  0 0.34375 0  0.03125 0.34375 0  0.0625 0.34375 0  0.09375 0.34375 0  0.125 0.34375 0  0.15625 0.34375 0  0.1875 0.34375 0  0.21875 0.34375 0  0.25 0.34375 0  0.28125 0.34375 0  0.3125 0.34375 0  0.34375 0.34375 0  0.375 0.34375 0  0.40625 0.34375 0  0.4375 0.34375 0  0.46875 0.34375 0  0.5 0.34375 0  0.53125 0.34375 0  0.5625 0.34375 0  0.59375 0.34375 0  0.625 0.34375 0  0.65625 0.34375 0  0.6875 0.34375 0  0.71875 0.34375 0  0.75 0.34375 0  0.78125 0.34375 0  0.8125 0.34375 0  0.84375 0.34375 0  0.875 0.34375 0  0.90625 0.34375 0  0.9375 0.34375 0  0.96875 0.34375 0  1 0.34375 0  0 0.375 0  0.03125 0.375 0  0.0625 0.375 0  0.09375 0.375 0  0.125 0.375 0  0.15625 0.375 0  0.1875 0.375 0  0.21875 0.375 0  0.25 0.375 0  0.28125 0.375 0  0.3125 0.375 0  0.34375 0.375 0  0.375 0.375 0  0.40625 0.375 0  0.4375 0.375 0  0.46875 0.375 0  0.5 0.375 0  0.53125 0.375 0  0.5625 0.375 0  0.59375 0.375 0  0.625 0.375 0  0.65625 0.375 0  0.6875 0.375 0  0.71875 0.375 0  0.75 0.375 0  0.78125 0.375 0  0.8125 0.375 0  0.84375 0.375 0  0.875 0.375 0  0.90625 0.375 0  0.9375 0.375 0  0.96875 0.375 0  1 0.375 0  0 0.40625 0  0.03125 0.40625 0  0.0625 0.40625 0  0.09375 0.40625 0  0.125 0.40625 0  0.15625 0.40625 0  0.1875 0.40625 0  0.21875 0.40625 0  0.25 0.40625 0  0.28125 0.40625 0  0.3125 0.40625 0  0.34375 0.40625 0  0.375 0.40625 0  0.40625 0.40625 0  0.4375 0.40625 0  0.46875 0.40625 0  0.5 0.40625 0  0.53125 0.40625 0  0.5625 0.40625 0  0.59375 0.40625 0  0.625 0.40625 0  0.65625 0.40625 0  0.6875 0.40625 0  0.71875 0.40625 0  0.75 0.40625 0  0.78125 0.40625 0  0.8125 0.40625 0  0.84375 0.40625 0  0.875 0.40625 0  0.90625 0.40625 0  0.9375 0.40625 0  0.96875 0.40625 0  1 0.40625 0  0 0.4375 0  0.03125 0.4375 0  0.0625 0.4375 0  0.09375 0.4375 0  0.125 0.4375 0  0.15625 0.4375 0  0.1875 0.4375 0  0.21875 0.4375 0  0.25 0.4375 0  0.28125 0.4375 0  0.3125 0.4375 0  0.34375 0.4375 0  0.375 0.4375 0  0.40625 0.4375 0  0.4375 0.4375 0  0.46875 0.4375 0  0.5 0.4375 0  0.53125 0.4375 0  0.5625 0.4375 0  0.59375 0.4375 0  0.625 0.4375 0  0.65625 0.4375 0  0.6875 0.4375 0  0.71875 0.4375 0  0.75 0.4375 0  0.78125 0.4375 0  0.8125 0.4375 0  0.84375 0.4375 0  0.875 0.4375 0  0.90625 0.4375 0  0.9375 0.4375 0  0.96875 0.4375 0  1 0.4375 0  0 0.46875 0  0.03125 0.46875 0  0.0625 0.46875 0  0.09375 0.46875 0  0.125 0.46875 0  0.15625 0.46875 0  0.1875 0.46875 0  0.21875 0.46875 0  0.25 0.46875 0  0.28125 0.46875 0  0.3125 0.46875 0  0.34375 0.46875 0  0.375 0.46875 0  0.40625 0.46875 0  0.4375 0.46875 0  0.46875 0.46875 0  0.5 0.46875 0  0.53125 0.46875 0  0.5625 0.46875 0  0.59375 0.46875 0  0.625 0.46875 0  0.65625 0.46875 0  0.6875 0.46875 0  0.71875 0.46875 0  0.75 0.46875 0  0.78125 0.46875 0  0.8125 0.46875 0  0.84375 0.46875 0  0.875 0.46875 0  0.90625 0.46875 0  0.9375 0.46875 0  0.96875 0.46875 0  1 0.46875 0  0 0.5 0  0.03125 0.5 0  0.0625 0.5 0  0.09375 0.5 0  0.125 0.5 0  0.15625 0.5 0  0.1875 0.5 0  0.21875 0.5 0  0.25 0.5 0  0.28125 0.5 0  0.3125 0.5 0  0.34375 0.5 0  0.375 0.5 0  0.40625 0.5 0  0.4375 0.5 0  0.46875 0.5 0  0.5 0.5 0  0.53125 0.5 0  0.5625 0.5 0  0.59375 0.5 0  0.625 0.5 0  0.65625 0.5 0  0.6875 0.5 0  0.71875 0.5 0  0.75 0.5 0  0.78125 0.5 0  0.8125 0.5 0  0.84375 0.5 0  0.875 0.5 0  0.90625 0.5 0  0.9375 0.5 0  0.96875 0.5 0  1 0.5 0  0 0.53125 0  0.03125 0.53125 0  0.0625 0.53125 0  0.09375 0.53125 0  0.125 0.53125 0  0.15625 0.53125 0  0.1875 0.53125 0  0.21875 0.53125 0  0.25 0.53125 0  0.28125 0.53125 0  0.3125 0.53125 0  0.34375 0.53125 0  0.375 0.53125 0  0.40625 0.53125 0  0.4375 0.53125 0  0.46875 0.53125 0  0.5 0.53125 0  0.53125 0.53125 0  0.5625 0.53125 0  0.59375 0.53125 0  0.625 0.53125 0  0.65625 0.53125 0  0.6875 0.53125 0  0.71875 0.53125 0  0.75 0.53125 0  0.78125 0.531
[...]
<PointData  Scalars="v_sol"> 
<DataArray  type="Float64"  Name="v_sol"  format="ascii">3.1423915247188782e-05  2.6171389039499917e-04  3.7665447526743720e-04  2.6893599614217064e-04  1.4011487379027323e-04  9.6358025483000992e-05  -2.2299634322150088e-04  2.3640361980038516e-04  3.8121496319267281e-04  -2.2389806427163331e-03  -5.5592157852033270e-03  -5.8995589452279324e-03  -3.9971444175693014e-03  -1.8329020973204050e-03  -1.1692966258469977e-04  9.8551249325668768e-04  1.6598145292317376e-03  2.0394262394555504e-03  2.3792883326815926e-03  2.7688375065134190e-03  3.2790780834826790e-03  3.7443561252578795e-03  4.2222939864279942e-03  3.4465980423944108e-03  1.0975521552460119e-03  -1.0256700448976841e-03  -2.7690340438981369e-03  -1.9734007629705268e-03  -1.0677704368244835e-03  -4.4238195712526153e-04  -2.1489283760227151e-04  -4.6971588731516996e-05  1.5968540497192949e-05  1.5666604957220652e-04  -1.4924357501414972e-03  -2.2972096783906771e-03  -1.5196658755960587e-03  -6.7571448467877401e-04  -3.9711151318337677e-04  -7.0693676717636865e-05  -1.7706637488642876e-03  1.8086106623994003e-03  8.9715890097458850e-03  1.3990407836419298e-02  1.9652172461367842e-02  2.3340702062347899e-02  2.2403251317708123e-02  1.6479107334936689e-02  6.7885115028811435e-03  -5.1249588782757332e-03  -1.7606081314896181e-02  -2.8693196348457239e-02  -3.5986413061848875e-02  -3.6827719101993402e-02  -2.9346850778208318e-02  -1.3672180119113239e-02  4.3417040061210820e-03  1.5161121309473197e-02  1.5737807070717036e-02  1.2057972428837384e-02  7.4149338111673194e-03  4.3332669005553088e-03  2.0465581560827539e-03  8.8011456633956778e-04  7.7656996698503207e-05  -1.6585225559495354e-04  8.5449669000236747e-06  -5.9894046995203004e-03  -7.4182556511162732e-03  -4.2442867678901489e-03  -2.9203411575670911e-04  1.0549138877692364e-03  4.5782125382677888e-03  1.6722196486173863e-02  3.6461831319396010e-02  5.7613059724890364e-02  7.0675846127489519e-02  7.2775726811098645e-02  6.5325081938291188e-02  5.0893026030021521e-02  3.1488054201198108e-02  8.8299473390806398e-03  -1.5782091663572768e-02  -4.0891751149033310e-02  -6.4454186512304334e-02  -8.3293613608454956e-02  -9.2964870636202040e-02  -8.8779855027923085e-02  -6.8561539162594026e-02  -3.5741952242848159e-02  -2.1261008869795945e-03  1.7637639663455423e-02  2.3040277147157773e-02  2.1980649424657470e-02  1.5472115638912001e-02  9.4845347107057956e-03  4.8103140616980308e-03  1.7960030807645903e-03  -2.0752097886391025e-04  -4.4378871037555469e-04  -1.3022017869523839e-02  -1.2186319072327371e-02  -3.1200052051919835e-03  4.3822606496781288e-03  1.4734482350124730e-02  3.9185239446533668e-02  7.5632637361092964e-02  1.0758623338367743e-01  1.2467790988486999e-01  1.2589315616828795e-01  1.1446747174352082e-01  9.4780871082089033e-02  6.9910392267868243e-02  4.1900102270214117e-02  1.1757805503382814e-02  -1.9890337511640304e-02  -5.2556935176509716e-02  -8.5153697755932914e-02  -1.1536784286986992e-01  -1.3886208316103243e-01  -1.4934096664039698e-01  -1.4022972309722712e-01  -1.0892707230260001e-01  -6.1301977244056942e-02  -1.4309273878943355e-02  1.2802060097610110e-02  2.0714761300343335e-02  2.2633243231615641e-02  1.6899924706634702e-02  1.0942071457505925e-02  5.5423989036920713e-03  9.4248665885652346e-05  -1.8687941634761536e-03  -2.1949282869331708e-02  -1.2595653049104675e-02  5.0994141495943474e-03  2.4394437119257466e-02  6.1033551768426064e-02  1.1152498305551431e-01  1.5332596967632892e-01  1.7491831290192042e-01  1.7623392709231625e-01  1.6210585948691272e-01  1.3835610227919204e-01  1.0947230417884939e-01  7.8286191834085389e-02  4.6091757136677798e-02  1.3282845567500498e-02  -2.0203210422946524e-02  -5.4576726851113214e-02  -8.9997308849806404e-02  -1.2583067559300762e-01  -1.6004170473501209e-01  -1.8792643276501694e-01  -2.0162892432342047e-01  -1.9160653512504899e-01  -1.5207089332773327e-01  -8.8549132688112750e-02  -2.4093865460648824e-02  1.0919309675094869e-02  1.8744229532309281e-02  2.1547321612559879e-02  1.6288436479658771e-02  1.0029532198253562e-02  7.0051479835865876e-04  -5.8602576715157907e-03  -2.8980448711006752e-02  -4.1227915441785961e-03  2.8409461522141726e-02  7.4537380296017461e-02  1.3708843239747501e-01  1.9037747118690732e-01  2.1830436324305846e-01  2.2059719928349972e-01  2.0393752318682765e-01  1.7650653292309285e-01  1.4447543207325800e-01  1.1139876735955825e-01  7.8598756544319262e-02  4.6187976386054347e-02  1.3832954853711945e-02  -1.8853494607128336e-02  -5.2139933463250632e-02  -8.6187940629416510e-02  -1.2121926758413717e-01  -1.5729219722163545e-01  -1.9356153835216586e-01  -2.2624060749098043e-01  -2.4632518113541602e-01  -2.3979573863665374e-01  -1.9444587398975624e-01  -1.1293266478726351e-01  -2.7078071185077580e-02  1.3387544047429877e-02  1.9074049162616569e-02  2.0290878163291361e-02  1.4548860453793947e-02  1.1045901853052585e-03  -1.3019616217221310e-02  -2.7559493066426730e-02  1.8769362462535306e-02  7.5638663651676527e-02  1.4776488057727932e-01  2.1498506639583745e-01  2.5292819731002891e-01  2.5884206673143412e-01  2.4124923161512141e-01  2.1125206477597500e-01  1.7738571773549477e-01  1.4375767454024863e-01  1.1124928352963830e-01  7.9316459376141304e-02  4.7378240122493864e-02  1.5100472793413736e-02  -1.7596336711016611e-02  -5.0660644456025111e-02  -8.3886941716474622e-02  -1.1714089431051129e-01  -1.5053384149933313e-01  -1.8479896009317265e-01  -2.2085760904040774e-01  -2.5701762187961069e-01  -2.8374094202224098e-01  -2.8122952148163033e-01  -2.2850093176996214e-01  -1.2512571316678264e-01  -1.7935075014122059e-02  1.7370050513884648e-02  2.2387856014091521e-02  1.6896825617307348e-02  1.6444411516692088e-03  -1.9705957655851959e-02  -1.1472381638520763e-02  5.9926986502055156e-02  1.4087920844261290e-01  2.2284858984250433e-01  2.7679533864309025e-01  2.9142080663921366e-01  2.7614083021449787e-01  2.4518881188239761e-01  2.1052479873952706e-01  1.7722338116328507e-01  1.4549315062345786e-01  1.1408742765751786e-01  8.2289976291750597e-02  4.9984562470174666e-02  1.7255938107467301e-02  -1.5803865637165168e-02  -4.9131602221622370e-02  -8.2638681220667268e-02  -1.1605495703157659e-01  -1.4895437968834035e-01  -1.8103671576864788e-01  -2.1308469854794071e-01  -2.4758062810885795e-01  -2.8552402844451502e-01  -3.1709097928072466e-01  -3.1495741564639640e-01  -2.4772768845907581e-01  -1.1545672707819962e-01  4.5038451850873597e-03  1.8793145713726148e-02  2.1907934521506807e-02  2.2059899251512449e-03  -1.8937039589806842e-02  2.1213979191068030e-02  1.1513705147353305e-01  2.0997890518746301e-01  2.8538328859103118e-01  3.1695128248331850e-01  3.0911956622038606e-01  2.7955092810218357e-01  2.4438061200495975e-01  2.1142377679815683e-01  1.8032903839735817e-01  1.4921516388041425e-01  1.1731223963393761e-01  8.4890406768626928e-02  5.2212783595003524e-02  1.9393148367263253e-02  -1.3597361572348171e-02  -4.6785133240409331e-02  -8.0194233358944850e-02  -1.1379635289081355e-01  -1.4742199230145173e-01  -1.8053973941569229e-01  -2.1229826485276859e-01  -2.4287544401083980e-01  -2.7579494038202473e-01  -3.1485075505661264e-01  -3.4877714781904140e-01  -3.3912004263683521e-01  -2.4389689158949487e-01  -7.4865319567190766e-02  2.5748542924191990e-02  2.1422832340911024e-02  1.2371850638438601e-03  -7.0594823702937338e-03  6.7169207410224641e-02  1.7566369924784286e-01  2.7207684549915478e-01  3.3041624576424283e-01  3.3867512390331905e-01  3.1446447908299047e-01  2.7922029022105987e-01  2.4580576132473145e-01  2.1513455947109547e-01  1.8419951047004482e-01  1.5219426622925566e-01  1.1963735629752791e-01  8.7023050600545021e-02  5.4375474292531069e-02  2.1642249515573621e-02  -1.1243688538533423e-02  -4.4283213908805789e-02  -7.7463658786161696e-02  -1.1078218483674886e-01  -1.4429597967220142e-01  -1.7803943539310538e-01  -2.1160368649229488e-01  -2.4364458308293477e-01  -2.7346179723287806e-01  -3.0558866603364021e-01  -3.4639554045625015e-01  -3.7893083098236524e-01  -3.4704126682725411e-01  -2.0374760736955339e-01  -3.4127918416929984e-03  2.1329184304729926e-02  8.8747380141516782e-03  1.3633112518438913e-02  1.2026179592362589e-01  2.3368713616386225e-01  3.2232570262286542e-01  3.5971188324780257e-01  3.4873770285336408e-01  3.1562441536312918e-01  2.8063440407957024e-01  2.4974143313587949e-01  2.1919065320916029e-01  1.8719099218956611e-01  1.5456455835175814e-01  1.2199056733500369e-01  8.9483601361275852e-02  5.6886973185827430e-02  2.4152375461027237e-02  -8.7320479552421316e-03  -4.1749944806854296e-02  -7.4884675821910274e-02  -1.0809720306568413e-01  -1.4136772296418326e-01  -1.7479725964240334e-01  -2.0864717445574726e-01  -2.4270167751300636e-01  -2.7506578591898451e-01  -3.0426258143134499e-01  -3.3699297787842958e-01  -3.8090843857057100e-01  -4.0305379563789895e-01  -3.2210147736846062e-01  -1.0893895970764927e-01  3.7204122629547802e-02  8.1936987364119515e-03  3.7858312900712995e-02  1.7393051949682437e-01  2.8443557258056357e-01  3.6048851701796431e-01  3.7781965568281151e-01  3.5352651917876488e-01  3.1726723257744294e-01  2.8437287437243847e-01  2.5422443688444962e-01  2.2251753794185383e-01  1.8979136174032762e-01  1.5716104664367384e-01  1.2471137521888784e-01  9.2190203941845655e-02  5.9546944997892953e-02  2.6792218813362450e-02  -6.0695468498867594e-03  -3.9050019889638646e-02  -7.2160594338317022e-02  -1.0540002624240216e-01  -1.3873185208539329e-01  -1.7209963386659013e-01  -2.0561101257429532e-01  -2.3975576711305838e-01  -2.7441069638230797e-01  -3.0669133292171891e-01  -3.3510724615755239e-01  -3.7129339147616430e-01  -4.1759460387074976e-01  -4.0536067061436060e-01  -2.3388498645372754e-01  3.1463831065692775e-02  -1.1895247533585387e-02  5.9856178557916299e-02  2.2301262304126898e-01  3.2598924955437558e-01  3.8853130706558076e-01  3.8930458938524776e-01  3.5703871266745679e-01  3.2056623456705169e-01  2.8912312631769704e-01  2.5824154520284498e-01  2.2546182330528616e-01  1.9258283211512922e-01  1.6004307816386015e-01  1.2753383309795183e-01  9.4912018545656271e-02  6.2239045798048981e-02  2.9509898279645431e-02  -3.2949381906471967e-03  -3.6208814222334233e-02  -6.9254484660524793e-02  -1.0246222114199809e-01  -1.3585672103056723e-01  -1.6941994470753305e-01  -2.0305335842907754e-01  -2.3688265159972591e-01  -2.7170687626473056e-01  -3.0707766079860077e-01  -3.3827370413738539e-01  -3.6681449152765389e-01  -4.1174646152145844e-01  -4.4683130095628221e-01  -3.4419015869771713e-01  -3.7269183829112783e-02  1.2649930662635185e-02  7.5080696415981640e-02  2.6418849962163676e-01  3.5821572893590442e-01  4.0888276377168709e-01  3.9738475701001413e-01  3.6087073304789413e-01  3.2498164769228161e-01  2.9384899852593416e-01  2.6179107630815962e-01  2.2842393600922675e-01  1.9556491413139901e-01  1.6295581113230112e-01  1.3030620126294581e-01  9.7634816491501672e-02  6.4990004372936006e-02  3.2319439224325799e-02  -4.1150360397473792e-04  -3.3243300522446492e-02  -6.6210048048861395e-02  -9.9352782289530733e-02  -1.3271927010044887e-01  -1.6636980871786208e-01  -2.0030447586956909e-01  -2.3437434292743733e-01  -2.6884768865572845e-01  -3.0496052554458902e-01  -3.4063204925423796e-01  -3.6924112353759930e-01  -4.0384613079869802e-01  -4.5936191800346998e-01  -4.3020558792440405e-01  -1.5248752357140943e-01  8.5336807251843422e-02  8.0754896092806186e-02  2.9559362669443312e-01  3.8185166997774089e-01  4.2348819912686447e-01  4.0382209368845756e-01  3.6515987345614098e-01  3.2967677113465893e-01  2.9814357931655822e-01  2.6507563523096067e-01  2.3143770119731569e-01  1.9853229422343496e-01  1.6576837601072039e-01  1.3302453128777109e-01  1.0036828086239734e-01  6.7780906882725686e-02  3.5194000455107101e-02  2.5712640781880639e-03  -3.0139470727413270e-02  -6.2990859277797878e-02  -9.6040170051116119e-02  -1.2934654012554081e-01  -1.6298459685312347e-01  -1.9704813355977119e-01  -2.3152940834244987e-01  -2.6623690383171594e-01  -3.0197806996149190e-01  -3.4002858459111246e-01  -3.7377455188542624e-01  -4.0150281793204501e-01  -4.5695661700985318e-01  -4.8709424787597155e-01  -2.7074259944477008e-01  1.4105463960245920e-01  7.5502491740555566e-02  3.1642415248955669e-01  3.9776841093132148e-01  4.3363577706019441e-01  4.0930764164991912e-01  3.6952750015636199e-01  3.3408723256376860e-01  3.0192860076661915e-01  2.6816237223674977e-01  2.3435744493087904e-01  2.0133229945860323e-01  1.6843323476391964e-01  1.3566031760722233e-01  1.0305456814945697e-01  7.0554213577054978e-02  3.8098445522758886e-02  5.6395109596882728e-03  -2.6893859778134962e-02  -5.9568863386721703e-02  -9.2463162291712420e-02  -1.2565438447983357e-01  -1.5923030986097286e-01  -1.9330408595418705e-01  -2.2799044427069948e-01  -2.6320191362140605e-01  -2.9891702285980887e-01  -3.3715609088950421e-01  -3.7613739610773705e-01  -4.0407289945798019e-01  -4.4857090758218082e-01  -5.1682354889889048e-01  -3.7130580939554003e-01  1.5113546028428906e-01  6.0080792369106746e-02  3.2572037961159672e-01  4.0692524783923362e-01  4.3989788928308249e-01  4.1401183457005503e-01  3.7356058297274136e-01  3.3788531083466938e-01  3.0516060710129400e-01  2.7098162407044363e-01  2.3702997014718197e-01  2.0387945929012730e-01  1.7090805083278274e-01  1.3815763518182361e-01  1.0563995650057831e-01  7.3279942604667053e-02  4.1017743381938601e-02  8.7805389187375470e-03  -2.3507782042498905e-02  -5.5928370235465291e-02  -8.8582617535356109e-02  -1.2157179380884095e-01  -1.5499687285059527e-01  -1.8899304594242833e-01  -2.2371942319474258e-01  -2.5923782598738809e-01  -2.9538037228898339e-01  -3.3312742075844676e-01  -3.7485558002672714e-01  -4.0780086143737132e-01  -4.3966111818997777e-01  -5.2302115251837644e-01  -4.4956651659575425e-01  1.1414716817654451e-01  3.6670560343168249e-02  3.2248638537138002e-01  4.0998554372706175e-01  4.4233857005440896e-01  4.1788523613585077e-01  3.7702638155365087e-01  3.4094146879081694e-01  3.0780626146615142e-01  2.7344775583020681e-01  2.3935017942478259e-01  2.0610088300918122e-01  1.7312184454259977e-01  1.4043897718610807e-01  1.0805826656863932e-01  7.5901844719497069e-02  4.3895459654855966e-02  1.1957653307713688e-02  -1.9985724075149858e-02  -5.2058750714103853e-02  -8.4367155121486903e-02  -1.1703981096539422e-01  -1.5020302947603592e-01  -1.8398784004040269e-01  -2.1863061284871296e-01  -2.5418719692183867e-01  -2.9073802259559950e-01  -3.2826875280536960e-01  -3.7035127882941049e-01  -4.0941833234801944e-01  -4.3278485445255427e-01  -5.1366783092192869e-01  -5.0760748139780743e-01  4.8437363999525238e-02  8.0844140743141363e-03  3.0631234979854771e-01  4.0671585360145013e-01  4.4086664968419742e-01  4.2060778045967950e-01  3.7992399471611832e-01  3.4316299420328622e-01  3.0976433369416495e-01  2.7545926543031618e-01  2.4124569292993084e-01  2.0792425440579282e-01  1.7500705113167628e-01  1.4244276876150858e-01  1.1025652351931757e-01  7.8372499484073488e-02  4.6706001997035722e-02  1.5169985383125376e-02  -1.6332006634967540e-02  -4.7958147470837750e-02  -7.9792191249988431e-02  -1.1201064324864007e-01  -1.4476863504046711e-01  -1.7818675220543495e-01  -2.1258493689441260e-01  -2.4798423893340349e-01  -2.8461713843510589e-01  -3.2227202349267353e-01  -3.6358776706381851e-01  -4.0730210750591556e-01  -4.2825763969765546e-01  -4.9564595671036438e-01  -5.4902081651454160e-01  -2.7318410278316111e-02  -2.0750566410261958e-02  2.7673895219677835e-01  3.9594322980111468e-01  4.3530332381174869e-01  4.2155023270467895e-01  3.8240024656025506e-01  3.4468860385576988e-01  3.1101474963179004e-01  2.7694546250775715e-01  2.4268621054071324e-01  2.0927694659291735e-01  1.7646449550011151e-01  1.4407707876599282e-01  1.1214253861232706e-01  8.0607729055836866e-02  4.9374208431063583e-02  1.8345938524074134e-02  -1.2618400549430602e-02  -4.3628866448171995e-02  -7.4838122541031712e-02  -1.0645390950105178e-01  -1.3862475025835996e-01  -1.7150296953409155e-01  -2.0545531168067038e-01  -2.4050606189395957e-01  -2.7690290536243672e-01  -3.1461803945017075e-01  -3.5521389248373120e-01  -4.0111074365034699e-01  -4.2468215811996818e-01  -4.7387175532351866e-01  -5.7601139653187172e-01  -1.0229076111896759e-01  -4.2529391596443263e-02  2.3349259787392565e-01  3.7551607162464934e-01  4.2502216452667380e-01  4.1995617786991235e-01  3.8441353402806855e-01  3.4574553082711229e-01  3.1148392501213379e-01  2.7776677498042324e-01  2.4361656726844280e-01  2.1011524656174294e-01  1.7740443998466365e-01  1.4526399491850445e-01  1.1365359355312209e-01  8.2548753885697421e-02  5.1851528641004709e-02  2.1448540255280278e-02  -8.8129561347042775e-03  -3.9049617589897404e-02  -6.9523460791632644e-02  -1.0033472247451532e-01  -1.3172030114935215e-01  -1.6385525390748643e-01  -1.9715406671125560e-01  -2.3159072641030432e-01  -2.6752996650500382e-01  -3.0491815901826602e-01  -3.4532344431562301e-01  -3.9118504438358054e-01  -4.2002064138218598e-01  -4.5032629613226122e-01  -5.9076562945531375e-01  -1.7184891930541377e-01  -4.9138901188146490e-02  1.7732106254511332e-01  3.4271984951467788e-01  4.0882010676733826e-01  4.1489815461678092e-01  3.8568413968367710e-01  3.4687727356317277e-01  3.1141431649300094e-01  2.7782458759370876e-01  2.4395361105399135e-01  2.1039128096652121e-01  1.7771347640636465e-01  1.4583862828816532e-01  1.1464114360336672e-01  8.4063468466210836e-02  5.4018199810698130e-02  2.4378910742680227e-02  -5.0262320286984354e-03  -3.4363924366057778e-02  -6.3863291384909759e-02  -9.3611394733401548e-02  -1.2403392182890964e-01  -1.5517840992502074e-01  -1.8759471903950434e-01  -2.2110280783221190e-01  -2.5635648014266554e-01  -2.9299561892733239e-01  -3.3354564352032817e-01  -3.7801364157446926e-01  -4.1225837395969589e-01  -4.2552148783007931e-01  -5.9478905476466559e-01  -2.3546751532952578e-01  -3.7253772043570201e-02  1.1236090696500149e-01  2.9545758750067425e-01  3.8452664790845731e-01  4.0525760854208875e-01  3.8517268412781147e-01  3.4818609496555486e-01  3.1113695654516244e-01  2.7699870777957253e-01  2.4344050442738668e-01  2.1000925027482867e-01  1.7734790553515126e-01  1.4570982937010304e-01  1.1498780355994122e-01  8.5064657980440245e-02  5.5808801313326890e-02  2.7095842015523230e-02  -1.2851360485730404e-03  -2.9476875299715499e-02  -5.7772989289136205e-02  -8.6319378416234299e-02  -1.1556237937269333e-01  -1.4541516283263567e-01  -1.7670172566322329e-01  -2.0891476615722787e-01  -2.4320057170771106e-01  -2.7878369513728152e-01  -3.1938251340591534e-01  -3.6189355509562254e-01  -3.9978328347791736e-01  -3.9884408191044263e-01  -5.8951924554500512e-01  -2.9415908686298420e-01  -1.5243633682622921e-02  4.9281177489959929e-02  2.3394580308563956e-01  3.4903020810185781e-01  3.8914512597665080e-01  3.8152054267037538e-01  3.4940704380573251e-01  3.1139993465014992e-01  2.7564100795857394e-01  2.4183324534928397e-01  2.0862863226828551e-01  1.7611872954806454e-01  1.4470546574387999e-01  1.1447842587920243e-01  8.5307388948809723e-02  5.7009561424921612e-02  2.9409681758432740e-02  2.2726108020305622e-03  -2.4581992731314381e-02  -5.1493023451282920e-02  -7.8545294838715321e-02  -1.0625280112736271e-01  -1.3454613430060736e-01  -1.6439938715055114e-01  -1.9488238847106426e-01  -2.2794788611896141e-01  -2.6218322861975191e-01  -3.0251408134926655e-01  -3.4259448445204649e-01  -3.8154604972684586e-01  -3.6919487507456661e-01  -5.7599188659706846e-01  -3.4967850922581017e-01  -3.7897119796816876e-03  5.7997429851298996e-03  1.6148308727323563e-01  2.9858932589179316e-01  3.6330501235369661e-01  3.7202806459626192e-01  3.4856720043555012e-01  3.1194358162954072e-01  2.7426990658665318e-01  2.3911907590796594e-01  2.0581584507787917e-01  1.7364514925218721e-01  1.4268422687652008e-01  1.1306332338728840e-01  8.4768595336146307e-02  5.7576099707741447e-02  3.1301484581959318e-02  5.6156164857654820e-03  -1.9630683175922523e-02  -4.4855149285571612e-02  -7.0137888720636532e-02  -9.6128423849079700e-02  -1