<?xml version="1.0"?>
<VTKFile type="UnstructuredGrid"  version="0.1"  >
<UnstructuredGrid>
<Piece  NumberOfPoints="16641" NumberOfCells="16384">
<Points>
<DataArray  type="Float64"  NumberOfComponents="3"  format="ascii">0 0 0  0.0078125 0 0  0.015625 0 0  0.0234375 0 0  0.03125 0 0  0.0390625 0 0  0.046875 0 0  0.0546875 0 0  0.0625 0 0  0.0703125 0 0  0.078125 0 0  0.0859375 0 0  0.09375 0 0  0.1015625 0 0  0.109375 0 0  0.1171875 0 0  0.125 0 0  0.1328125 0 0  0.140625 0 0  0.1484375 0 0  0.15625 0 0  0.1640625 0 0  0.171875 0 0  0.1796875 0 0  0.1875 0 0  0.1953125 0 0  0.203125 0 0  0.2109375 0 0  0.21875 0 0  0.2265625 0 0  0.234375 0 0  0.2421875 0 0  0.25 0 0  0.2578125 0 0  0.265625 0 0  0.2734375 0 0  0.28125 0 0  0.2890625 0 0  0.296875 0 0  0.3046875 0 0  0.3125 0 0  0.3203125 0 0  0.328125 0 0  0.3359375 0 0  0.34375 0 0  0.3515625 0 0  0.359375 0 0  0.3671875 0 0  0.375 0 0  0.3828125 0 0  0.390625 0 0  0.3984375 0 0  0.40625 0 0  0.4140625 0 0  0.421875 0 0  0.4296875 0 0  0.4375 0 0  0.4453125 0 0  0.453125 0 0  0.4609375 0 0  0.46875 0 0  0.4765625 0 0  0.484375 0 0  0.4921875 0 0  0.5 0 0  0.5078125 0 0  0.515625 0 0  0.5234375 0 0  0.53125 0 0  0.5390625 0 0  0.546875 0 0  0.5546875 0 0  0.5625 0 0  0.5703125 0 0  0.578125 0 0  0.5859375 0 0  0.59375 0 0  0.6015625 0 0  0.609375 0 0  0.6171875 0 0  0.625 0 0  0.6328125 0 0  0.640625 0 0  0.6484375 0 0  0.65625 0 0  0.6640625 0 0  0.671875 0 0  0.6796875 0 0  0.6875 0 0  0.6953125 0 0  0.703125 0 0  0.7109375 0 0  0.71875 0 0  0.7265625 0 0  0.734375 0 0  0.7421875 0 0  0.75 0 0  0.7578125 0 0  0.765625 0 0  0.7734375 0 0  0.78125 0 0  0.7890625 0 0  0.796875 0 0  0.8046875 0 0  0.8125 0 0  0.8203125 0 0  0.828125 0 0  0.8359375 0 0  0.84375 0 0  0.8515625 0 0  0.859375 0 0  0.8671875 0 0  0.875 0 0  0.8828125 0 0  0.890625 0 0  0.8984375 0 0  0.90625 0 0  0.9140625 0 0  0.921875 0 0  0.9296875 0 0  0.9375 0 0  0.9453125 0 0  0.953125 0 0  0.9609375 0 0  0.96875 0 0  0.9765625 0 0  0.984375 0 0  0.9921875 0 0  1 0 0  0 0.0078125 0  0.0078125 0.0078125 0  0.015625 0.0078125 0  0.0234375 0.0078125 0  0.03125 0.0078125 0  0.0390625 0.0078125 0  0.046875 0.0078125 0  0.0546875 0.0078125 0  0.0625 0.0078125 0  0.0703125 0.0078125 0  0.078125 0.0078125 0  0.0859375 0.0078125 0  0.09375 0.0078125 0  0.1015625 0.0078125 0  0.109375 0.0078125 0  0.1171875 0.0078125 0  0.125 0.0078125 0  0.1328125 0.0078125 0  0.140625 0.0078125 0  0.1484375 0.0078125 0  0.15625 0.0078125 0  0.1640625 0.0078125 0  0.171875 0.0078125 0  0.1796875 0.0078125 0  0.1875 0.0078125 0  0.1953125 0.0078125 0  0.203125 0.0078125 0  0.2109375 0.0078125 0  0.21875 0.0078125 0  0.2265625 0.0078125 0  0.234375 0.0078125 0  0.2421875 0.0078125 0  0.25 0.0078125 0  0.2578125 0.0078125 0  0.265625 0.0078125 0  0.2734375 0.0078125 0  0.28125 0.0078125 0  0.2890625 0.0078125 0  0.296875 0.0078125 0  0.3046875 0.0078125 0  0.3125 0.0078125 0  0.3203125 0.0078125 0  0.328125 0.0078125 0  0.3359375 0.0078125 0  0.34375 0.0078125 0  0.3515625 0.0078125 0  0.359375 0.0078125 0  0.3671875 0.0078125 0  0.375 0.0078125 0  0.3828125 0.0078125 0  0.390625 0.0078125 0  0.3984375 0.0078125 0  0.40625 0.0078125 0  0.4140625 0.0078125 0  0.421875 0.0078125 0  0.4296875 0.0078125 0  0.4375 0.0078125 0  0.4453125 0.0078125 0  0.453125 0.0078125 0  0.4609375 0.0078125 0  0.46875 0.0078125 0  0.4765625 0.0078125 0  0.484375 0.0078125 0  0.4921875 0.0078125 0  0.5 0.0078125 0  0.5078125 0.0078125 0  0.515625 0.0078125 0  0.5234375 0.0078125 0  0.53125 0.0078125 0  0.5390625 0.0078125 0  0.546875 0.0078125 0  0.5546875 0.0078125 0  0.5625 0.0078125 0  0.5703125 0.0078125 0  0.578125 0.0078125 0  0.5859375 0.0078125 0  0.59375 0.0078125 0  0.6015625 0.0078125 0  0.609375 0.0078125 0  0.6171875 0.0078125 0  0.625 0.0078125 0  0.6328125 0.0078125 0  0.640625 0.0078125 0  0.6484375 0.0078125 0  0.65625 0.0078125 0  0.6640625 0.0078125 0  0.671875 0.0078125 0  0.6796875 0.0078125 0  0.6875 0.0078125 0  0.6953125 0.0078125 0  0.703125 0.0078125 0  0.7109375 0.0078125 0  0.71875 0.0078125 0  0.7265625 0.0078125 0  0.734375 0.0078125 0  0.7421875 0.0078125 0  0.75 0.0078125 0  0.7578125 0.0078125 0  0.765625 0.0078125 0  0.7734375 0.0078125 0  0.78125 0.0078125 0  0.7890625 0.0078125 0  0.796875 0.0078125 0  0.8046875 0.0078125 0  0.8125 0.0078125 0  0.8203125 0.0078125 0  0.828125 0.0078125 0  0.8359375 0.0078125 0  0.84375 0.0078125 0  0.8515625 0.0078125 0  0.859375 0.0078125 0  0.8671875 0.0078125 0  0.875 0.0078125 0  0.8828125 0.0078125 0  0.890625 0.0078125 0  0.8984375 0.0078125 0  0.90625 0.0078125 0  0.9140625 0.0078125 0  0.921875 0.0078125 0  0.9296875 0.0078125 0  0.9375 0.0078125 0  0.9453125 0.0078125 0  0.953125 0.0078125 0  0.9609375 0.0078125 0  0.96875 0.0078125 0  0.9765625 0.0078125 0  0.984375 0.0078125 0  0.9921875 0.0078125 0  1 0.0078125 0  0 0.015625 0  0.0078125 0.015625 0  0.015625 0.015625 0  0.0234375 0.015625 0  0.03125 0.015625 0  0.0390625 0.015625 0  0.046875 0.015625 0  0.0546875 0.015625 0  0.0625 0.015625 0  0.0703125 0.015625 0  0.078125 0.015625 0  0.0859375 0.015625 0  0.09375 0.015625 0  0.1015625 0.015625 0  0.109375 0.015625 0  0.1171875 0.015625 0  0.125 0.015625 0  0.1328125 0.015625 0  0.140625 0.015625 0  0.1484375 0.015625 0  0.15625 0.015625 0  0.1640625 0.015625 0  0.171875 0.015625 0  0.1796875 0.015625 0  0.1875 0.015625 0  0.1953125 0.015625 0  0.203125 0.015625 0  0.2109375 0.015625 0  0.21875 0.015625 0  0.2265625 0.015625 0  0.234375 0.015625 0  0.2421875 0.015625 0  0.25 0.015625 0  0.2578125 0.015625 0  0.265625 0.015625 0  0.2734375 0.015625 0  0.28125 0.015625 0  0.2890625 0.015625 0  0.296875 0.015625 0  0.3046875 0.015625 0  0.3125 0.015625 0  0.3203125 0.015625 0  0.328125 0.015625 0  0.3359375 0.015625 0  0.34375 0.015625 0  0.3515625 0.015625 0  0.359375 0.015625 0  0.3671875 0.015625 0  0.375 0.015625 0  0.3828125 0.015625 0  0.390625 0.015625 0  0.3984375 0.015625 0  0.40625 0.015625 0  0.4140625 0.015625 0  0.421875 0.015625 0  0.4296875 0.015625 0  0.4375 0.015625 0  0.4453125 0.015625 0  0.453125 0.015625 0  0.4609375 0.015625 0  0.46875 0.015625 0  0.4765625 0.015625 0  0.484375 0.015625 0  0.4921875 0.015625 0  0.5 0.015625 0  0.5078125 0.015625 0  0.515625 0.015625 0  0.5234375 0.015625 0  0.53125 0.015625 0  0.5390625 0.015625 0  0.546875 0.015625 0  0.5546875 0.015625 0  0.5625 0.015625 0  0.5703125 0.015625 0  0.578125 0.015625 0  0.5859375 0.015625 0  0.59375 0.015625 0  0.6015625 0.015625 0  0.609375 0.015625 0  0.6171875 0.015625 0  0.625 0.015625 0  0.6328125 0.015625 0  0.640625 0.015625 0  0.6484375 0.015625 0  0.65625 0.015625 0  0.6640625 0.015625 0  0.671875 0.015625 0  0.6796875 0.015625 0  0.6875 0.015625 0  0.6953125 0.015625 0  0.703125 0.015625 0  0.7109375 0.015625 0  0.71875 0.015625 0  0.7265625 0.015625 0  0.734375 0.015625 0  0.7421875 0.015625 0  0.75 0.015625 0  0.7578125 0.015625 0  0.765625 0.015625 0  0.7734375 0.015625 0  0.78125 0.015625 0  0.7890625 0.015625 0  0.796875 0.015625 0  0.8046875 0.015625 0  0.8125 0.015625 0  0.8203125 0.015625 0  0.828125 0.015625 0  0.8359375 0.015625 0  0.84375 0.015625 0  0.8515625 0.015625 0  0.859375 0.015625 0  0.8671875 0.015625 0  0.875 0.015625 0  0.8828125 0.015625 0  0.890625 0.015625 0  0.8984375 0.015625 0  0.90625 0.015625 0  0.9140625 0.015625 0  0.921875 0.015625 0  0.9296875 0.015625 0  0.9375 0.015625 0  0.9453125 0.015625 0  0.953125 0.015625 0  0.9609375 0.015625 0  0.96875 0.015625 0  0.9765625 0.015625 0  0.984375 0.015625 0  0.9921875 0.015625 0  1 0.015625 0  0 0.0234375 0  0.0078125 0.0234375 0  0.015625 0.0234375 0  0.0234375 0.0234375 0  0.03125 0.0234375 0  0.0390625 0.0234375 0  0.046875 0.0234375 0  0.0546875 0.0234375 0  0.0625 0.0234375 0  0.0703125 0.0234375 0  0.078125 0.0234375 0  0.0859375 0.0234375 0  0.09375 0.0234375 0  0.1015625 0.0234375 0  0.109375 0.0234375 0  0.1171875 0.0234375 0  0.125 0.0234375 0  0.1328125 0.0234375 0  0.140625 0.0234375 0  0.1484375 0.0234375 0  0.15625 0.0234375 0  0.1640625 0.0234375 0  0.171875 0.0234375 0  0.1796875 0.0234375 0  0.1875 0.0234375 0  0.1953125 0.0234375 0  0.203125 0.0234375 0  0.2109375 0.0234375 0  0.21875 0.0234375 0  0.2265625 0.0234375 0  0.234375 0.0234375 0  0.2421875 0.0234375 0  0.25 0.0234375 0  0.2578125 0.0234375 0  0.265625 0.0234375 0  0.2734375 0.0234375 0  0.28125 0.0234375 0  0.2890625 0.0234375 0  0.296875 0.0234375 0  0.3046875 0.0234375 0  0.3125 0.0234375 0  0.3203125 0.0234375 0  0.328125 0.0234375 0  0.3359375 0.0234375 0  0.34375 0.0234375 0  0.3515625 0.0234375 0  0.359375 0.0234375 0  0.3671875 0.0234375 0  0.375 0.0234375 0  0.3828125 0.0234375 0  0.390625 0.0234375 0  0.3984375 0.0234375 0  0.40625 0.0234375 0  0.4140625 0.0234375 0  0.421875 0.0234375 0  0.4296875 0.0234375 0  0.4375 0.0234375 0  0.4453125 0.0234375 0  0.453125 0.0234375 0  0.4609375 0.0234375 0  0.46875 0.0234375 0  0.4765625 0.0234375 0  0.484375 0.0234375 0  0.4921875 0.0234375 0  0.5 0.0234375 0  0.5078125 0.0234375 0  0.515625 0.0234375 0  0.5234375 0.0234375 0  0.53125 0.0234375 0  0.5390625 0.0234375 0  0.546875 0.0234375 0  0.5546875 0.0234375 0  0.5625 0.0234375 0  0.5703125 0.0234375 0  0.578125 0.0234375 0  0.5859375 0.0234375 0  0.59375 0.0234375 0  0.6015625 0.0234375 0  0.609375 0.0234375 0  0.6171875 0.0234375 0  0.625 0.0234375 0  0.6328125 0.0234375 0  0.640625 0.0234375 0  0.6484375 0.0234375 0  0.65625 0.0234375 0  0.6640625 0.0234375 0  0.671875 0.0234375 0  0.6796875 0.0234375 0  0.6875 0.0234375 0  0.6953125 0.0234375 0  0.703125 0.0234375 0  0.7109375 0.0234375 0  0.71875 0.0234375 0  0.7265625 0.0234375 0  0.734375 0.0234375 0  0.7421875 0.0234375 0  0.75 0.0234375 0  0.7578125 0.0234375 0  0.765625 0.0234375 0  0.7734375 0.0234375 0  0.78125 0.0234375 0  0.7890625 0.0234375 0  0.796875 0.0234375 0  0.8046875 0.0234375 0  0.8125 0.0234375 0  0.8203125 0.0234375 0  0.828125 0.0234375 0  0.8359375 0.0234375 0  0.84375 0.0234375 0  0.8515625 0.0234375 0  0.859375 0.0234375 0  0.8671
[...]
<PointData  Scalars="u_sol"> 
<DataArray  type="Float64"  Name="u_sol"  format="ascii">1.0623267827010241e-06  -2.2640353899874754e-06  -1.2862764468611684e-05  -2.2139166970125571e-05  -2.7710993487161340e-05  -2.8809725373489903e-05  -2.5231220780468366e-05  -1.7212951775519475e-05  -5.4483329728262008e-06  8.9635371371807714e-06  2.4677352471925688e-05  4.0328755359428981e-05  5.4761350346252158e-05  6.7193634496984201e-05  7.7291990786047433e-05  8.5151179681692646e-05  9.1208647726250252e-05  9.6129749717972681e-05  1.0069654581781790e-04  1.0572032087371564e-04  1.1198379350703893e-04  1.2020849081961402e-04  1.3103807729361350e-04  1.4502951321468976e-04  1.6264924157332464e-04  1.8427858671477441e-04  2.1023814410769335e-04  2.4084106981309288e-04  2.7647726768928661e-04  3.1771802404475640e-04  3.6541195735847288e-04  4.2073430000200661e-04  4.8517935129295439e-04  5.6049715562034406e-04  6.4857122223914714e-04  7.5132356008310612e-04  8.7074592857182254e-04  1.0089024979265538e-03  1.1676926507063394e-03  1.3485737508856449e-03  1.5525604864737657e-03  1.7803168997399814e-03  2.0317880012409874e-03  2.3050242546224851e-03  2.5947050968988289e-03  2.8917556749371055e-03  3.1847620927580702e-03  3.4616908721612828e-03  3.7096686381304454e-03  3.9127713440158998e-03  4.0500906164645792e-03  4.0961361403704377e-03  4.0237583203244342e-03  3.8083029808509998e-03  3.4314675192035275e-03  2.8838955073703563e-03  2.1662634179465002e-03  1.2891029182971140e-03  2.7180031147670239e-04  -8.5879585535360368e-04  -2.0698377858684417e-03  -3.3238251643415550e-03  -4.5797641992334640e-03  -5.7941552882723691e-03  -6.9218818875774911e-03  -7.9171059384470152e-03  -8.7342896507988984e-03  -9.3294620372647349e-03  -9.6618309160271670e-03  -9.6958061640967288e-03  -9.4034413210304924e-03  -8.7672166961379073e-03  -7.7829773194064509e-03  -6.4627139280881533e-03  -4.8367537891327592e-03  -2.9548452650250225e-03  -8.8561461499711731e-04  1.2860137236396486e-03  3.4635946610729238e-03  5.5459320212265170e-03  7.4352115160386751e-03  9.0454908741493083e-03  1.0310322892970687e-02  1.1188316443445877e-02  1.1665741670880549e-02  1.1755799573493843e-02  1.1494780928441537e-02  1.0935881332468861e-02  1.0141799943028192e-02  9.1773692920558043e-03  8.1033513655515820e-03  6.9722465916859898e-03  5.8265675574396660e-03  4.6995812872445471e-03  3.6180412487727396e-03  2.6059138111753223e-03  1.6875988260160824e-03  8.8886490537478378e-04  2.3411685514357019e-04  -2.5981746414731896e-04  -5.9061301270077124e-04  -7.7348860674922065e-04  -8.3749012320615880e-04  -8.1729804482589370e-04  -7.4575599958698184e-04  -6.4959330447634384e-04  -5.4774862970379912e-04  -4.5167360599265052e-04  -3.6700558148353174e-04  -2.9558158098147203e-04  -2.3711816892126687e-04  -1.9036644890063376e-04  -1.5376531063555137e-04  -1.2572312135992087e-04  -1.0469257572605633e-04  -8.9173960824733532e-05  -7.7719741738267980e-05  -6.8960755775739657e-05  -6.1650047763973882e-05  -5.4716289892030495e-05  -4.7323821337272555e-05  -3.8936036481697852e-05  -2.9377749862719851e-05  -1.8895155588773593e-05  -8.1887285087856558e-06  1.3992368801936644e-06  7.9638091847284510e-06  7.1101563259515881e-06  -7.9367925059855396e-07  6.0246702676060020e-06  -3.2522589990701691e-05  -8.9578150417720938e-05  -1.0520896491455764e-04  -4.5210320815546210e-05  1.0814166066296201e-04  3.5884875376411297e-04  6.9982496302053814e-04  1.1149396420556121e-03  1.5816644917547920e-03  2.0743027407240720e-03  2.5674420409939600e-03  3.0390818006317739e-03  3.4729468962704834e-03  3.8597096061345512e-03  4.1970950548410003e-03  4.4890614452917929e-03  4.7443697094242685e-03  4.9748791603008808e-03  5.1938472937466552e-03  5.4144127000809615e-03  5.6483400889265744e-03  5.9050356763806159e-03  6.1908132679722840e-03  6.5084026274264493e-03  6.8567228027341083e-03  7.2309627586418217e-03  7.6229878906676138e-03  8.0220050086905314e-03  8.4152812376372520e-03  8.7885970588620285e-03  9.1260989330142796e-03  9.4093425275616257e-03  9.6156492807109653e-03  9.7162528121468340e-03  9.6746827405305037e-03  9.4455912841165789e-03  8.9741941285549510e-03  8.1964863007813350e-03  7.0399350384453925e-03  5.4237638806523712e-03  3.2594527826459141e-03  4.5464540377625077e-04  -3.0793071796574910e-03  -7.4210650014657148e-03  -1.2635724132169929e-02  -1.8769521118414970e-02  -2.5840814036408793e-02  -3.3830555361088185e-02  -4.2676345932758694e-02  -5.2271960918699616e-02  -6.2472002800037202e-02  -7.3100161883347406e-02  -8.3959253308316412e-02  -9.4841385287589397e-02  -1.0553703488156649e-01  -1.1584230235357464e-01  -1.2556407335678332e-01  -1.3452317334547895e-01  -1.4255583271577443e-01  -1.4951390196141923e-01  -1.5526428956508506e-01  -1.5968807153905873e-01  -1.6267966445227233e-01  -1.6414638537566473e-01  -1.6400864963068912e-01  -1.6220098782076781e-01  -1.5867399262920714e-01  -1.5339723092574192e-01  -1.4636306758068121e-01  -1.3759124166390965e-01  -1.2713390760940688e-01  -1.1508070983733708e-01  -1.0156331009454608e-01  -8.6758657742166956e-02  -7.0890215731750722e-02  -5.4226372417167976e-02  -3.7075413954905941e-02  -1.9776728158547984e-02  -2.6883455850502738e-03  1.3828549757151013e-02  2.9426977187212270e-02  4.3791792352518892e-02  5.6655777901272693e-02  6.7812406564179417e-02  7.7123795010090965e-02  8.4522894561626455e-02  9.0009635248621656e-02  9.3641473660509053e-02  9.5519510646950606e-02  9.5771983795109691e-02  9.4537459941018726e-02  9.1950410564854979e-02  8.8131982363125250e-02  8.3188557504684874e-02  7.7219906961696699e-02  7.0337030948462581e-02  6.2686805215766889e-02  5.4476419380359083e-02  4.5986607009592104e-02  3.7561823302544359e-02  2.9571477862975995e-02  2.2349782320342303e-02  1.6136183453606220e-02  1.1041540456643019e-02  7.0512710129513757e-03  4.0569106406954589e-03  1.8982710424639913e-03  4.0114904540309161e-04  -5.9708572511835676e-04  -1.2345992844699644e-03  -1.6213746505372381e-03  -1.8404698306709068e-03  -1.9512851837014348e-03  -1.9933933134294781e-03  -1.9904561022951808e-03  -1.9541039839598116e-03  -1.8876807122359120e-03  -1.7897282324216524e-03  -1.6570998934254389e-03  -1.4876273767141922e-03  -1.2822946763708007e-03  -1.0468623579340142e-03  -7.9290149766275740e-04  -5.3811150918416713e-04  -3.0604235599054300e-04  -1.2394854920605092e-04  -1.9578676589218534e-05  4.4401441016451128e-06  5.7778011051257065e-06  -3.1266478728942578e-05  -6.4011669257421828e-05  -1.7551107796827551e-05  1.5205893895101105e-04  4.6892343446201378e-04  9.3659182728265760e-04  1.5415814393617464e-03  2.2568622195783998e-03  3.0464616820822139e-03  3.8705561047310752e-03  4.6905409467280388e-03  5.4733763801153128e-03  6.1946803366957418e-03  6.8402945345213666e-03  7.4063425428060803e-03  7.8980321353661672e-03  8.3275912123574915e-03  8.7117572251479824e-03  9.0691851096343246e-03  9.4180332623818100e-03  9.7738712473197462e-03  1.0147960727481231e-02  1.0545912773205064e-02  1.0966721145241921e-02  1.1402192024580928e-02  1.1836799482950803e-02  1.2247947953834401e-02  1.2606495238297584e-02  1.2877217056966834e-02  1.3018737037820236e-02  1.2982471699330009e-02  1.2710500411072613e-02  1.2132681107301558e-02  1.1163644272029143e-02  9.7007690872425063e-03  7.6241607274067265e-03  4.7981234598312560e-03  1.0733779117092597e-03  -3.7074190397188927e-03  -9.6984775858138302e-03  -1.7037546638424252e-02  -2.5833692294637736e-02  -3.6153271704711720e-02  -4.8001765609865264e-02  -6.1306360468245870e-02  -7.5908059782624618e-02  -9.1567512229191794e-02  -1.0798184748761741e-01  -1.2480754032135195e-01  -1.4168533546377299e-01  -1.5826413484308952e-01  -1.7422102907393885e-01  -1.8927535665647419e-01  -2.0319599436392419e-01  -2.1580246334682127e-01  -2.2696134351364669e-01  -2.3657978494153850e-01  -2.4459773767366147e-01  -2.5098012343320975e-01  -2.5570973546108872e-01  -2.5878128328618472e-01  -2.6019673771173685e-01  -2.5996197395685328e-01  -2.5808463640164531e-01  -2.5457312998798493e-01  -2.4943665664478987e-01  -2.4268624059544630e-01  -2.3433670832772266e-01  -2.2440959367157631e-01  -2.1293691398881662e-01  -1.9996570120764789e-01  -1.8556306463202160e-01  -1.6982141453339789e-01  -1.5286330170242299e-01  -1.3484516321017009e-01  -1.1595915952119168e-01  -9.6432309885724182e-02  -7.6522337162353127e-02  -5.6510044520237411e-02  -3.6688621784403540e-02  -1.7350902128829230e-02  1.2239172519908246e-03  1.8782387997912951e-02  3.5106262436925016e-02  5.0018344926734605e-02  6.3384509375133471e-02  7.5112253717973212e-02  8.5146461504792909e-02  9.3462998917190954e-02  1.0006053713551816e-01  1.0495081330922194e-01  1.0814770755880422e-01  1.0965620315820138e-01  1.0946352954294998e-01  1.0753634159224325e-01  1.0382913581778888e-01  9.8309219550366006e-02  9.1000748826102110e-02  8.2042745943343501e-02  7.1743541427576260e-02  6.0602091489331995e-02  4.9267207687953153e-02  3.8429645313858063e-02  2.8681898243623417e-02  2.0406687764167472e-02  1.3740425795247034e-02  8.6119131698898337e-03  4.8200114312472817e-03  2.1107953573519292e-03  2.3260062142270961e-04  -1.0341588936732488e-03  -1.8658951707488953e-03  -2.3955114959333351e-03  -2.7171744300566107e-03  -2.8931063721125711e-03  -2.9609131955413222e-03  -2.9407101502230771e-03  -2.8416392538468519e-03  -2.6675497197070227e-03  -2.4217314492942735e-03  -2.1106500986437992e-03  -1.7466532862295092e-03  -1.3495676518611107e-03  -9.4712036594049847e-04  -5.7374138094970809e-04  -2.6762619319971206e-04  -6.3282159482295230e-05  1.2384268141627040e-05  2.3708545531232783e-06  -1.3099216526442271e-05  1.1446134022786762e-05  1.5307120992676498e-04  4.5717158599703207e-04  9.4593632636795987e-04  1.6177124684082058e-03  2.4504939814926560e-03  3.4066477328806187e-03  4.4390707388054897e-03  5.4977892523547173e-03  6.5361171227456358e-03  7.5155524160699224e-03  8.4088989578516519e-03  9.2014691653222545e-03  9.8905509266595613e-03  1.0483533534610607e-02  1.0995169831809320e-02  1.1444428870565314e-02  1.1851304322686823e-02  1.2233827154114580e-02  1.2605417980348125e-02  1.2972628772465151e-02  1.3333279399828639e-02  1.3674991898206510e-02  1.3974144079246329e-02  1.4195257894689770e-02  1.4290759653963479e-02  1.4200869868977940e-02  1.3853137090411279e-02  1.3161070638708071e-02  1.2021562780385056e-02  1.0311253816618633e-02  7.8831133284104817e-03  4.5653463966908092e-03  1.6332057958230237e-04  -5.5350029129961663e-03  -1.2746979066430904e-02  -2.1676144230949435e-02  -3.2490315082340196e-02  -4.5296972548910755e-02  -6.0113833111690246e-02  -7.6841240714632622e-02  -9.5248389818741605e-02  -1.1497980124832709e-01  -1.3558223683513237e-01  -1.5654831229257687e-01  -1.7736782587073541e-01  -1.9757520740044432e-01  -2.1678392563587967e-01  -2.3470372603328990e-01  -2.5114155816191741e-01  -2.6599040913522670e-01  -2.7921144419503452e-01  -2.9081427326875897e-01  -3.0083868860932672e-01  -3.0933963939098774e-01  -3.1637596784317351e-01  -3.2200265365849379e-01  -3.2626594270258086e-01  -3.2920064544470123e-01  -3.3082896269847367e-01  -3.3116033764164754e-01  -3.3019199253623938e-01  -3.2790995310668974e-01  -3.2429048570045677e-01  -3.1930196753751700e-01  -3.1290728246739269e-01  -3.0506688169486079e-01  -2.9574267151453576e-01  -2.8490287848628021e-01  -2.7252798615538337e-01  -2.5861771918718390e-01  -2.4319885786827350e-01  -2.2633339129392974e-01  -2.0812618090088131e-01  -1.8873095836296516e-01  -1.6835322417180076e-01  -1.4724857716696038e-01  -1.2571533242751917e-01  -1.0408105076345005e-01  -8.2683759154015907e-02  -6.1849953987413019e-02  -4.1872567696530097e-02  -2.2992519790026738e-02  -5.3869963299402130e-03  1.0833757499876856e-02  2.5621189657053511e-02  3.8976491546435572e-02  5.0934670348278928e-02  6.1547348671311383e-02  7.0866143965376646e-02  7.8927262955162586e-02  8.5736962000660194e-02  9.1257353487492712e-02  9.5393153784060061e-02  9.7982563714119286e-02  9.8799258243507521e-02  9.7576227943924745e-02  9.4063038060172993e-02  8.8120865014042621e-02  7.9839496383463146e-02  6.9630358315490581e-02  5.8230388822571297e-02  4.6576056862234129e-02  3.5581878220636624e-02  2.5928721998119061e-02  1.7961151925747095e-02  1.1713833848711535e-02  7.0138637085341380e-03  3.5919986913149258e-03  1.1643994249680148e-03  -5.2192527893459343e-04  -1.6709735288467195e-03  -2.4356171881532137e-03  -2.9233322949849829e-03  -3.2050780197309617e-03  -3.3248460754589735e-03  -3.3086352560796070e-03  -3.1722727770534401e-03  -2.9278633322143937e-03  -2.5888229235327838e-03  -2.1735086975354159e-03  -1.7074247720070220e-03  -1.2239674000267655e-03  -7.6341904881671878e-04  -3.7089829652489018e-04  -9.2015530479147038e-05  1.8127363669074761e-05  -2.1371649298987149e-06  9.6964400412106485e-06  1.0877684226448940e-04  3.6675693783701452e-04  8.2537487486914157e-04  1.5000594316817680e-03  2.3792847579283214e-03  3.4286952261813179e-03  4.5973459449884582e-03  5.8257355877923073e-03  7.0541240713291155e-03  8.2298016713029283e-03  9.3122612131365766e-03  1.0275800962429764e-02  1.1109650868207902e-02  1.1816120692388424e-02  1.2407439829554176e-02  1.2901931218227953e-02  1.3320019179048409e-02  1.3680396330190071e-02  1.3996520539453255e-02  1.4273501227414921e-02  1.4505369880608819e-02  1.4672711342548652e-02  1.4740651889919002e-02  1.4657227123335274e-02  1.4352134129986722e-02  1.3735725982005349e-02  1.2697851098035534e-02  1.1105990200590884e-02  8.8022148987221532e-03  5.5994211066382046e-03  1.2791107794526077e-03  -4.4068077657468943e-03  -1.1727658392548577e-02  -2.0955161081191595e-02  -3.2334511544184819e-02  -4.6049814870422319e-02  -6.2184169719237799e-02  -8.0677384032771790e-02  -1.0129479317870743e-01  -1.2362226510722957e-01  -1.4709567449369834e-01  -1.7106316999168866e-01  -1.9486632358047457e-01  -2.1791843386206208e-01  -2.3976024797890180e-01  -2.6008358396753539e-01  -2.7872503629639456e-01  -2.9563933539505227e-01  -3.1086390767487548e-01  -3.2448417247075567e-01  -3.3660534337187026e-01  -3.4733280333060440e-01  -3.5676054118644718e-01  -3.6496583625117196e-01  -3.7200808425523846e-01  -3.7792993119431767e-01  -3.8275938082610894e-01  -3.8651203365958614e-01  -3.8919301117750482e-01  -3.9079838571764863e-01  -3.9131610202537903e-01  -3.9072646211246381e-01  -3.8900229019551447e-01  -3.8610891676906961e-01  -3.8200414261162802e-01  -3.7663837155910013e-01  -3.6995514485831088e-01  -3.6189236441446054e-01  -3.5238455412544623e-01  -3.4136655572144142e-01  -3.2877906247656613e-01  -3.1457631350498283e-01  -2.9873605706690431e-01  -2.8127149333057988e-01  -2.6224431604675608e-01  -2.4177723604387064e-01  -2.2006364083731172e-01  -1.9737157393559282e-01  -1.7403931912548398e-01  -1.5046079948268712e-01  -1.2706079439928292e-01  -1.0426234144090732e-01  -8.2450987015035476e-02  -6.1941975386510278e-02  -4.2956368317461059e-02  -2.5610300274988066e-02  -9.9185834077574510e-03  4.1892939507927537e-03  1.6844936023764044e-02  2.8213271434264095e-02  3.8464888572355652e-02  4.7750206237013287e-02  5.6175353483692306e-02  6.3778587611086943e-02  7.0506529706221122e-02  7.6192126361229504e-02  8.0541484735313709e-02  8.3144012435991954e-02  8.3526396696109548e-02  8.1267771015873444e-02  7.6169387783396894e-02  6.8424422964363726e-02  5.8689089373432278e-02  4.7972090355933535e-02  3.7363855382679598e-02  2.7745227418248426e-02  1.9624376606098320e-02  1.3143158358432763e-02  8.1881785279672922e-03  4.5194447940067111e-03  1.8665927799290268e-03  -1.6779303685167369e-05  -1.3305929245241983e-03  -2.2246586273526221e-03  -2.8044219811568460e-03  -3.1403960583141644e-03  -3.2782325287931775e-03  -3.2479519614277115e-03  -3.0717296006831586e-03  -2.7700736714389588e-03  -2.3664174055762254e-03  -1.8901611971588260e-03  -1.3782540478989105e-03  -8.7523062247150821e-04  -4.3299431911780263e-04  -1.0908659481083757e-04  2.1505318509639756e-05  -7.0054097045676725e-06  3.4142738195868507e-05  2.1749154845592127e-04  6.0967486792848466e-04  1.2452087722017230e-03  2.1282982641564769e-03  3.2321791111434980e-03  4.5045852512587666e-03  5.8763718604278011e-03  7.2723013940046649e-03  8.6216980111553949e-03  9.8669890574923213e-03  1.0968820300038248e-02  1.1907427457430609e-02  1.2680795091816183e-02  1.3300608280040149e-02  1.3787066456598912e-02  1.4163412648328167e-02  1.4450712130820793e-02  1.4663128464274854e-02  1.4803752130780598e-02  1.4860936310941573e-02  1.4805060360933545e-02  1.4585654248284591e-02  1.4128862486414135e-02  1.3335267995799120e-02  1.2078037752903597e-02  1.0201175714617454e-02  7.5174367783474800e-03  3.8055572197496241e-03  -1.1920431127518788e-03  -7.7681248343607493e-03  -1.6241661281888288e-02  -2.6934800294212850e-02  -4.0133894164365032e-02  -5.6039725375529863e-02  -7.4711492269247004e-02  -9.6012803723240878e-02  -1.1957806245386396e-01  -1.4481976620082504e-01  -1.7098781637701710e-01  -1.9727234495047993e-01  -2.2292069420769420e-01  -2.4733218884522587e-01  -2.7010616628181788e-01  -2.9103998789922414e-01  -3.1009113131286503e-01  -3.2732396742907305e-01  -3.4285868748618170e-01  -3.5683240675498756e-01  -3.6937521818847208e-01  -3.8059916056888438e-01  -3.9059602078944999e-01  -3.9943987173767870e-01  -4.0719124578618243e-01  -4.1390107499858098e-01  -4.1961355748391077e-01  -4.2436778481405057e-01  -4.2819831590959501e-01  -4.3113499791633364e-01  -4.3320231770447726e-01  -4.3441849155431278e-01  -4.3479441704769367e-01  -4.3433254157459716e-01  -4.3302565862852410e-01  -4.3085562451982956e-01  -4.2779199827144665e-01  -4.2379064214078355e-01  -4.1879238596263951e-01  -4.1272195518485461e-01  -4.0548749520336491e-01  -3.9698118636340535e-01  -3.8708161955992004e-01  -3.7565875053945053e-01  -3.6258230310797884e-01  -3.4773434675643733e-01  -3.3102631762725626e-01  -3.1241989088694450e-01  -2.9194985388071482e-01  -2.6974564634888065e-01  -2.4604693450824991e-01  -2.2120804825601087e-01  -1.9568692271163693e-01  -1.7001662765670097e-01  -1.4476134638767846e-01  -1.2046282186722816e-01  -9.7586461402704577e-02  -7.6477229741922614e-02  -5.7333581207243647e-02  -4.0203392310723132e-02  -2.5000539313477472e-02  -1.1536350296831413e-02  4.4170520017990588e-04  1.1210619659186119e-02  2.1035302664233913e-02  3.0135391353345121e-02  3.8653992107006527e-02  4.6626546669383519e-02  5.3949727441471911e-02  6.0355381054808234e-02  6.5404179972206017e-02  6.8525529901290003e-02  6.9133601879344475e-02  6.6824780082614207e-02  6.1599494547300376e-02  5.3985077946826582e-02  4.4946180848262449e-02  3.5597071610387165e-02  2.6877225102009360e-02  1.9362929146619030e-02  1.3261895851931545e-02  8.5200149312499793e-03  4.9480643029828474e-03  2.3171713596638870e-03  4.1344060718813468e-04  -9.3863899405780503e-04  -1.8715584019204320e-03  -2.4795951016364686e-03  -2.8273540762153004e-03  -2.9589644821927850e-03  -2.9064718218191517e-03  -2.6968623709742864e-03  -2.3575930020672009e-03  -1.9206452516758146e-03  -1.4252507703620943e-03  -9.1928442865728765e-04  -4.6068509375710870e-04  -1.1699384827528557e-04  2.3119856673874563e-05  -1.2226813398721842e-05  6.0030562576309478e-05  3.3810000312492299e-04  8.8532513529679684e-04  1.7264411889500761e-03  2.8492747393567019e-03  4.2048633806201583e-03  5.7155756138351135e-03  7.2876637358627767e-03  8.8261772515863084e-03  1.0248683802786452e-02  1.1494976437774583e-02  1.2531320779687298e-02  1.3349418286108045e-02  1.3961400958461398e-02  1.4392584999986821e-02  1.4673506467885193e-02  1.4832251860419397e-02  1.4887577303543125e-02  1.4842949296419149e-02  1.4681460779355927e-02  1.4361513392770609e-02  1.3813139755970207e-02  1.2934851182473820e-02  1.1590949141558131e-02  9.6092989332994261e-03  6.7795692084321379e-03  2.8518036591838282e-03  -2.4644215389718152e-03  -9.4983568499598554e-03  -1.8609714642009324e-02  -3.0165829175040373e-02  -4.4497475328056112e-02  -6.1835556446930083e-02  -8.2237697652569608e-02  -1.0551971236855924e-01  -1.3121633657950069e-01  -1.5859836892293078e-01  -1.8676023638627592e-01