<?xml version="1.0"?>
<VTKFile type="UnstructuredGrid"  version="0.1"  >
<UnstructuredGrid>
<Piece  NumberOfPoints="16641" NumberOfCells="16384">
<Points>
<DataArray  type="Float64"  NumberOfComponents="3"  format="ascii">0 0 0  0.0078125 0 0  0.015625 0 0  0.0234375 0 0  0.03125 0 0  0.0390625 0 0  0.046875 0 0  0.0546875 0 0  0.0625 0 0  0.0703125 0 0  0.078125 0 0  0.0859375 0 0  0.09375 0 0  0.1015625 0 0  0.109375 0 0  0.1171875 0 0  0.125 0 0  0.1328125 0 0  0.140625 0 0  0.1484375 0 0  0.15625 0 0  0.1640625 0 0  0.171875 0 0  0.1796875 0 0  0.1875 0 0  0.1953125 0 0  0.203125 0 0  0.2109375 0 0  0.21875 0 0  0.2265625 0 0  0.234375 0 0  0.2421875 0 0  0.25 0 0  0.2578125 0 0  0.265625 0 0  0.2734375 0 0  0.28125 0 0  0.2890625 0 0  0.296875 0 0  0.3046875 0 0  0.3125 0 0  0.3203125 0 0  0.328125 0 0  0.3359375 0 0  0.34375 0 0  0.3515625 0 0  0.359375 0 0  0.3671875 0 0  0.375 0 0  0.3828125 0 0  0.390625 0 0  0.3984375 0 0  0.40625 0 0  0.4140625 0 0  0.421875 0 0  0.4296875 0 0  0.4375 0 0  0.4453125 0 0  0.453125 0 0  0.4609375 0 0  0.46875 0 0  0.4765625 0 0  0.484375 0 0  0.4921875 0 0  0.5 0 0  0.5078125 0 0  0.515625 0 0  0.5234375 0 0  0.53125 0 0  0.5390625 0 0  0.546875 0 0  0.5546875 0 0  0.5625 0 0  0.5703125 0 0  0.578125 0 0  0.5859375 0 0  0.59375 0 0  0.6015625 0 0  0.609375 0 0  0.6171875 0 0  0.625 0 0  0.6328125 0 0  0.640625 0 0  0.6484375 0 0  0.65625 0 0  0.6640625 0 0  0.671875 0 0  0.6796875 0 0  0.6875 0 0  0.6953125 0 0  0.703125 0 0  0.7109375 0 0  0.71875 0 0  0.7265625 0 0  0.734375 0 0  0.7421875 0 0  0.75 0 0  0.7578125 0 0  0.765625 0 0  0.7734375 0 0  0.78125 0 0  0.7890625 0 0  0.796875 0 0  0.8046875 0 0  0.8125 0 0  0.8203125 0 0  0.828125 0 0  0.8359375 0 0  0.84375 0 0  0.8515625 0 0  0.859375 0 0  0.8671875 0 0  0.875 0 0  0.8828125 0 0  0.890625 0 0  0.8984375 0 0  0.90625 0 0  0.9140625 0 0  0.921875 0 0  0.9296875 0 0  0.9375 0 0  0.9453125 0 0  0.953125 0 0  0.9609375 0 0  0.96875 0 0  0.9765625 0 0  0.984375 0 0  0.9921875 0 0  1 0 0  0 0.0078125 0  0.0078125 0.0078125 0  0.015625 0.0078125 0  0.0234375 0.0078125 0  0.03125 0.0078125 0  0.0390625 0.0078125 0  0.046875 0.0078125 0  0.0546875 0.0078125 0  0.0625 0.0078125 0  0.0703125 0.0078125 0  0.078125 0.0078125 0  0.0859375 0.0078125 0  0.09375 0.0078125 0  0.1015625 0.0078125 0  0.109375 0.0078125 0  0.1171875 0.0078125 0  0.125 0.0078125 0  0.1328125 0.0078125 0  0.140625 0.0078125 0  0.1484375 0.0078125 0  0.15625 0.0078125 0  0.1640625 0.0078125 0  0.171875 0.0078125 0  0.1796875 0.0078125 0  0.1875 0.0078125 0  0.1953125 0.0078125 0  0.203125 0.0078125 0  0.2109375 0.0078125 0  0.21875 0.0078125 0  0.2265625 0.0078125 0  0.234375 0.0078125 0  0.2421875 0.0078125 0  0.25 0.0078125 0  0.2578125 0.0078125 0  0.265625 0.0078125 0  0.2734375 0.0078125 0  0.28125 0.0078125 0  0.2890625 0.0078125 0  0.296875 0.0078125 0  0.3046875 0.0078125 0  0.3125 0.0078125 0  0.3203125 0.0078125 0  0.328125 0.0078125 0  0.3359375 0.0078125 0  0.34375 0.0078125 0  0.3515625 0.0078125 0  0.359375 0.0078125 0  0.3671875 0.0078125 0  0.375 0.0078125 0  0.3828125 0.0078125 0  0.390625 0.0078125 0  0.3984375 0.0078125 0  0.40625 0.0078125 0  0.4140625 0.0078125 0  0.421875 0.0078125 0  0.4296875 0.0078125 0  0.4375 0.0078125 0  0.4453125 0.0078125 0  0.453125 0.0078125 0  0.4609375 0.0078125 0  0.46875 0.0078125 0  0.4765625 0.0078125 0  0.484375 0.0078125 0  0.4921875 0.0078125 0  0.5 0.0078125 0  0.5078125 0.0078125 0  0.515625 0.0078125 0  0.5234375 0.0078125 0  0.53125 0.0078125 0  0.5390625 0.0078125 0  0.546875 0.0078125 0  0.5546875 0.0078125 0  0.5625 0.0078125 0  0.5703125 0.0078125 0  0.578125 0.0078125 0  0.5859375 0.0078125 0  0.59375 0.0078125 0  0.6015625 0.0078125 0  0.609375 0.0078125 0  0.6171875 0.0078125 0  0.625 0.0078125 0  0.6328125 0.0078125 0  0.640625 0.0078125 0  0.6484375 0.0078125 0  0.65625 0.0078125 0  0.6640625 0.0078125 0  0.671875 0.0078125 0  0.6796875 0.0078125 0  0.6875 0.0078125 0  0.6953125 0.0078125 0  0.703125 0.0078125 0  0.7109375 0.0078125 0  0.71875 0.0078125 0  0.7265625 0.0078125 0  0.734375 0.0078125 0  0.7421875 0.0078125 0  0.75 0.0078125 0  0.7578125 0.0078125 0  0.765625 0.0078125 0  0.7734375 0.0078125 0  0.78125 0.0078125 0  0.7890625 0.0078125 0  0.796875 0.0078125 0  0.8046875 0.0078125 0  0.8125 0.0078125 0  0.8203125 0.0078125 0  0.828125 0.0078125 0  0.8359375 0.0078125 0  0.84375 0.0078125 0  0.8515625 0.0078125 0  0.859375 0.0078125 0  0.8671875 0.0078125 0  0.875 0.0078125 0  0.8828125 0.0078125 0  0.890625 0.0078125 0  0.8984375 0.0078125 0  0.90625 0.0078125 0  0.9140625 0.0078125 0  0.921875 0.0078125 0  0.9296875 0.0078125 0  0.9375 0.0078125 0  0.9453125 0.0078125 0  0.953125 0.0078125 0  0.9609375 0.0078125 0  0.96875 0.0078125 0  0.9765625 0.0078125 0  0.984375 0.0078125 0  0.9921875 0.0078125 0  1 0.0078125 0  0 0.015625 0  0.0078125 0.015625 0  0.015625 0.015625 0  0.0234375 0.015625 0  0.03125 0.015625 0  0.0390625 0.015625 0  0.046875 0.015625 0  0.0546875 0.015625 0  0.0625 0.015625 0  0.0703125 0.015625 0  0.078125 0.015625 0  0.0859375 0.015625 0  0.09375 0.015625 0  0.1015625 0.015625 0  0.109375 0.015625 0  0.1171875 0.015625 0  0.125 0.015625 0  0.1328125 0.015625 0  0.140625 0.015625 0  0.1484375 0.015625 0  0.15625 0.015625 0  0.1640625 0.015625 0  0.171875 0.015625 0  0.1796875 0.015625 0  0.1875 0.015625 0  0.1953125 0.015625 0  0.203125 0.015625 0  0.2109375 0.015625 0  0.21875 0.015625 0  0.2265625 0.015625 0  0.234375 0.015625 0  0.2421875 0.015625 0  0.25 0.015625 0  0.2578125 0.015625 0  0.265625 0.015625 0  0.2734375 0.015625 0  0.28125 0.015625 0  0.2890625 0.015625 0  0.296875 0.015625 0  0.3046875 0.015625 0  0.3125 0.015625 0  0.3203125 0.015625 0  0.328125 0.015625 0  0.3359375 0.015625 0  0.34375 0.015625 0  0.3515625 0.015625 0  0.359375 0.015625 0  0.3671875 0.015625 0  0.375 0.015625 0  0.3828125 0.015625 0  0.390625 0.015625 0  0.3984375 0.015625 0  0.40625 0.015625 0  0.4140625 0.015625 0  0.421875 0.015625 0  0.4296875 0.015625 0  0.4375 0.015625 0  0.4453125 0.015625 0  0.453125 0.015625 0  0.4609375 0.015625 0  0.46875 0.015625 0  0.4765625 0.015625 0  0.484375 0.015625 0  0.4921875 0.015625 0  0.5 0.015625 0  0.5078125 0.015625 0  0.515625 0.015625 0  0.5234375 0.015625 0  0.53125 0.015625 0  0.5390625 0.015625 0  0.546875 0.015625 0  0.5546875 0.015625 0  0.5625 0.015625 0  0.5703125 0.015625 0  0.578125 0.015625 0  0.5859375 0.015625 0  0.59375 0.015625 0  0.6015625 0.015625 0  0.609375 0.015625 0  0.6171875 0.015625 0  0.625 0.015625 0  0.6328125 0.015625 0  0.640625 0.015625 0  0.6484375 0.015625 0  0.65625 0.015625 0  0.6640625 0.015625 0  0.671875 0.015625 0  0.6796875 0.015625 0  0.6875 0.015625 0  0.6953125 0.015625 0  0.703125 0.015625 0  0.7109375 0.015625 0  0.71875 0.015625 0  0.7265625 0.015625 0  0.734375 0.015625 0  0.7421875 0.015625 0  0.75 0.015625 0  0.7578125 0.015625 0  0.765625 0.015625 0  0.7734375 0.015625 0  0.78125 0.015625 0  0.7890625 0.015625 0  0.796875 0.015625 0  0.8046875 0.015625 0  0.8125 0.015625 0  0.8203125 0.015625 0  0.828125 0.015625 0  0.8359375 0.015625 0  0.84375 0.015625 0  0.8515625 0.015625 0  0.859375 0.015625 0  0.8671875 0.015625 0  0.875 0.015625 0  0.8828125 0.015625 0  0.890625 0.015625 0  0.8984375 0.015625 0  0.90625 0.015625 0  0.9140625 0.015625 0  0.921875 0.015625 0  0.9296875 0.015625 0  0.9375 0.015625 0  0.9453125 0.015625 0  0.953125 0.015625 0  0.9609375 0.015625 0  0.96875 0.015625 0  0.9765625 0.015625 0  0.984375 0.015625 0  0.9921875 0.015625 0  1 0.015625 0  0 0.0234375 0  0.0078125 0.0234375 0  0.015625 0.0234375 0  0.0234375 0.0234375 0  0.03125 0.0234375 0  0.0390625 0.0234375 0  0.046875 0.0234375 0  0.0546875 0.0234375 0  0.0625 0.0234375 0  0.0703125 0.0234375 0  0.078125 0.0234375 0  0.0859375 0.0234375 0  0.09375 0.0234375 0  0.1015625 0.0234375 0  0.109375 0.0234375 0  0.1171875 0.0234375 0  0.125 0.0234375 0  0.1328125 0.0234375 0  0.140625 0.0234375 0  0.1484375 0.0234375 0  0.15625 0.0234375 0  0.1640625 0.0234375 0  0.171875 0.0234375 0  0.1796875 0.0234375 0  0.1875 0.0234375 0  0.1953125 0.0234375 0  0.203125 0.0234375 0  0.2109375 0.0234375 0  0.21875 0.0234375 0  0.2265625 0.0234375 0  0.234375 0.0234375 0  0.2421875 0.0234375 0  0.25 0.0234375 0  0.2578125 0.0234375 0  0.265625 0.0234375 0  0.2734375 0.0234375 0  0.28125 0.0234375 0  0.2890625 0.0234375 0  0.296875 0.0234375 0  0.3046875 0.0234375 0  0.3125 0.0234375 0  0.3203125 0.0234375 0  0.328125 0.0234375 0  0.3359375 0.0234375 0  0.34375 0.0234375 0  0.3515625 0.0234375 0  0.359375 0.0234375 0  0.3671875 0.0234375 0  0.375 0.0234375 0  0.3828125 0.0234375 0  0.390625 0.0234375 0  0.3984375 0.0234375 0  0.40625 0.0234375 0  0.4140625 0.0234375 0  0.421875 0.0234375 0  0.4296875 0.0234375 0  0.4375 0.0234375 0  0.4453125 0.0234375 0  0.453125 0.0234375 0  0.4609375 0.0234375 0  0.46875 0.0234375 0  0.4765625 0.0234375 0  0.484375 0.0234375 0  0.4921875 0.0234375 0  0.5 0.0234375 0  0.5078125 0.0234375 0  0.515625 0.0234375 0  0.5234375 0.0234375 0  0.53125 0.0234375 0  0.5390625 0.0234375 0  0.546875 0.0234375 0  0.5546875 0.0234375 0  0.5625 0.0234375 0  0.5703125 0.0234375 0  0.578125 0.0234375 0  0.5859375 0.0234375 0  0.59375 0.0234375 0  0.6015625 0.0234375 0  0.609375 0.0234375 0  0.6171875 0.0234375 0  0.625 0.0234375 0  0.6328125 0.0234375 0  0.640625 0.0234375 0  0.6484375 0.0234375 0  0.65625 0.0234375 0  0.6640625 0.0234375 0  0.671875 0.0234375 0  0.6796875 0.0234375 0  0.6875 0.0234375 0  0.6953125 0.0234375 0  0.703125 0.0234375 0  0.7109375 0.0234375 0  0.71875 0.0234375 0  0.7265625 0.0234375 0  0.734375 0.0234375 0  0.7421875 0.0234375 0  0.75 0.0234375 0  0.7578125 0.0234375 0  0.765625 0.0234375 0  0.7734375 0.0234375 0  0.78125 0.0234375 0  0.7890625 0.0234375 0  0.796875 0.0234375 0  0.8046875 0.0234375 0  0.8125 0.0234375 0  0.8203125 0.0234375 0  0.828125 0.0234375 0  0.8359375 0.0234375 0  0.84375 0.0234375 0  0.8515625 0.0234375 0  0.859375 0.0234375 0  0.8671
[...]
<PointData  Scalars="v_sol"> 
<DataArray  type="Float64"  Name="v_sol"  format="ascii">-1.0488979132275933e-06  -5.9610199574078646e-06  -5.0238535069853619e-06  4.2264987294174097e-07  8.2592845120819678e-06  1.7052287947016930e-05  2.5716156775542000e-05  3.3318954137756151e-05  3.9147744708948042e-05  4.2741935040495223e-05  4.3960316793443053e-05  4.2973043122531686e-05  4.0213326871392871e-05  3.6282311640194996e-05  3.1842061437507369e-05  2.7516000028758790e-05  2.3816570874229552e-05  2.1105616405652888e-05  1.9585292703340650e-05  1.9310434606504247e-05  2.0212039184383950e-05  2.2123240392234013e-05  2.4803253252204729e-05  2.7959052142871073e-05  3.1267649554190021e-05  3.4402302505910153e-05  3.7063176693121622e-05  3.9007535616107593e-05  4.0068265009218844e-05  4.0147224368660431e-05  3.9175751225097526e-05  3.7046139774129124e-05  3.3535654758920581e-05  2.8259175013757238e-05  2.0668288283474735e-05  1.0081600536630639e-05  -4.2700917900252459e-06  -2.3189581845301080e-05  -4.7473534065353659e-05  -7.7944235879247949e-05  -1.1550765745982121e-04  -1.6098798832752864e-04  -2.1477444832912674e-04  -2.7681247160361042e-04  -3.4691269697566723e-04  -4.2461323574109077e-04  -5.0855150586147347e-04  -5.9614241768274183e-04  -6.8389453677096860e-04  -7.6798122915944472e-04  -8.4466736648334542e-04  -9.1052280096887476e-04  -9.6253526083942193e-04  -9.9820877184362330e-04  -1.0156544589385334e-03  -1.0136428282227208e-03  -9.9159432660621684e-04  -9.4950881054944912e-04  -8.8785378803729034e-04  -8.0743897559980998e-04  -7.0930232872074754e-04  -5.9462544267042190e-04  -4.6468740558208374e-04  -3.2085908932693582e-04  -1.6463407168924832e-04  2.3110758132074651e-06  1.7803682134847723e-04  3.6025250781155564e-04  5.4623284049907931e-04  7.3275293529988011e-04  9.1605616244656027e-04  1.0918685325323847e-03  1.2554708587757739e-03  1.4018359790586422e-03  1.5258326346624747e-03  1.6224907405202784e-03  1.6873159212176202e-03  1.7166343512742808e-03  1.7079427372417922e-03  1.6602318179763942e-03  1.5742452043062463e-03  1.4526297557674777e-03  1.2999319333611480e-03  1.1224017044905541e-03  9.2758568176269987e-04  7.2372576627438936e-04  5.1902211042827964e-04  3.2085951280090807e-04  1.3512185266840283e-04  -3.4281008834747630e-05  -1.8557529930256258e-04  -3.1892120360140880e-04  -4.3584818946748919e-04  -5.3838651846644552e-04  -6.2801687518103952e-04  -7.0464037491474105e-04  -7.6587258515726673e-04  -8.0704704652853371e-04  -8.2226165254475317e-04  -8.0646961126201646e-04  -7.5800014383214898e-04  -6.8034367667432023e-04  -5.8211128246932306e-04  -4.7492733344622586e-04  -3.7018732283335869e-04  -2.7635854565322837e-04  -1.9797575906459804e-04  -1.3613151963026371e-04  -8.9618218048362537e-05  -5.6083477187165350e-05  -3.2873248915536154e-05  -1.7488503935926851e-05  -7.7546134604122793e-06  -1.8480723889026116e-06  1.7154422380277899e-06  4.0908754714576118e-06  6.1107810842414666e-06  8.2995483869921406e-06  1.0897243491476797e-05  1.3894177259937432e-05  1.7066478216045345e-05  2.0025466037462533e-05  2.2254141187445548e-05  2.3186366450554127e-05  2.2216681575811390e-05  1.8855750293260242e-05  1.2744044679458104e-05  4.4913973138195355e-06  -7.9881004389061807e-07  2.1828239396185507e-06  3.2510989428964323e-05  2.8042657289802251e-05  -4.9670648797748531e-07  -4.0528631839723116e-05  -8.5504204773510377e-05  -1.2967683286333075e-04  -1.6846152951795827e-04  -1.9814126669983069e-04  -2.1637676387808346e-04  -2.2242917436319815e-04  -2.1719310793470742e-04  -2.0291344445168248e-04  -1.8270048030957835e-04  -1.5996294326675259e-04  -1.3789478207123325e-04  -1.1910395044220340e-04  -1.0541668330368240e-04  -9.7839312280151278e-05  -9.6629408154578372e-05  -1.0142054611229246e-04  -1.1135633061001974e-04  -1.2521095073242476e-04  -1.4149650743876900e-04  -1.5857348306784019e-04  -1.7478322010354116e-04  -1.8860646495396063e-04  -1.9882230813744400e-04  -2.0460872825216027e-04  -2.0551206175433676e-04  -2.0123977486219860e-04  -1.9130085771194231e-04  -1.7461218350431411e-04  -1.4924350781783135e-04  -1.1240930721442140e-04  -6.0676554592181091e-05  9.7632940968439404e-06  1.0289971871475838e-04  2.2275139883545325e-04  3.7335545071775031e-04  5.5892375226952729e-04  7.8316673703118821e-04  1.0477713638369387e-03  1.3524458386596255e-03  1.6962647453558075e-03  2.0766095863152716e-03  2.4860514532399833e-03  2.9114982732308401e-03  3.3366779737119203e-03  3.7451409981046789e-03  4.1216251543336087e-03  4.4520362701792448e-03  4.7232336573338335e-03  4.9232697045264598e-03  5.0419977836193303e-03  5.0716719215562608e-03  5.0072500338295836e-03  4.8463196804525762e-03  4.5887258229872219e-03  4.2360493263889016e-03  3.7910834297791604e-03  3.2574189953097376e-03  2.6392043759936403e-03  1.9411091052827592e-03  1.1684914517361810e-03  3.2775236085082757e-04  -5.7315533873212058e-04  -1.5241071258815296e-03  -2.5121362012224223e-03  -3.5207920277080737e-03  -4.5296313971926435e-03  -5.5139692144966310e-03  -6.4450318077313527e-03  -7.2906539783565705e-03  -8.0166298055154364e-03  -8.5887564468512135e-03  -8.9754983344039734e-03  -9.1510564351504672e-03  -9.0984808865987501e-03  -8.8123543380351048e-03  -8.3005418931012039e-03  -7.5845818275502731e-03  -6.6984806335193036e-03  -5.6859441075624399e-03  -4.5963592710698553e-03  -3.4800745441613966e-03  -2.3836473878973536e-03  -1.3457261765865544e-03  -3.9412627529264774e-04  4.5551950963986713e-04  1.1993584748963765e-03  1.8431831178052421e-03  2.3987677189710533e-03  2.8790735066748703e-03  3.2929722875825020e-03  3.6405011396128647e-03  3.9101000084806187e-03  4.0795393327379536e-03  4.1217631575349769e-03  4.0150909426405210e-03  3.7544260184985646e-03  3.3582486836186564e-03  2.8675435988797645e-03  2.3365952531064645e-03  1.8191017673508661e-03  1.3557517607673674e-03  9.6876504719795422e-04  6.6363905352912378e-04  4.3447923917768009e-04  2.6964540232276039e-04  1.5596142222404249e-04  8.1014231652103025e-05  3.3995526310382289e-05  5.8265910798915875e-06  -1.0898719390042919e-05  -2.1950080876219033e-05  -3.1484392178870419e-05  -4.2108852839086323e-05  -5.5002400914881215e-05  -7.0080499703987654e-05  -8.6188522806425968e-05  -1.0131200094572868e-04  -1.1283379053786323e-04  -1.1776881169471609e-04  -1.1316732500215931e-04  -9.6037416482049723e-05  -6.5177638381796145e-05  -1.9755166641720842e-05  7.1511461771761161e-06  1.2575357590740377e-05  9.2048372583515130e-05  5.5464077705329296e-05  -5.6577576807425293e-05  -2.1162795602378134e-04  -3.8390414472056237e-04  -5.5201612374653310e-04  -6.9815138334332100e-04  -8.0875521809610322e-04  -8.7560590561750807e-04  -8.9650058742714539e-04  -8.7506419738817356e-04  -8.1966590561416885e-04  -7.4169430811340013e-04  -6.5360513583788361e-04  -5.6713891829730139e-04  -4.9199050258330612e-04  -4.3504589124341978e-04  -4.0015026907105601e-04  -3.8827060741863375e-04  -3.9788178578178783e-04  -4.2542888409542761e-04  -4.6577915144408117e-04  -5.1264784704452705e-04  -5.5903461574480641e-04  -5.9771697306506871e-04  -6.2180050024348915e-04  -6.2522913465227451e-04  -6.0305599492629881e-04  -5.5123633646677510e-04  -4.6580793257752946e-04  -3.4159152894186213e-04  -1.7085107482276221e-04  5.7505346562664111e-05  3.5777482127939984e-04  7.4638176490067292e-04  1.2405061912687011e-03  1.8571220590489648e-03  2.6116579874948787e-03  3.5158089456736089e-03  4.5764178024531310e-03  5.7938699891784181e-03  7.1569389781761727e-03  8.6392868492375270e-03  1.0201624208769595e-02  1.1794099292934923e-02  1.3356595767952437e-02  1.4821078807993689e-02  1.6117759435366748e-02  1.7182898642259956e-02  1.7965453277869803e-02  1.8430959865630352e-02  1.8562383554714717e-02  1.8358503729889359e-02  1.7830763376076607e-02  1.6999497834223262e-02  1.5890256623150741e-02  1.4530669150988228e-02  1.2948069813075936e-02  1.1167928510142682e-02  9.2130280654090374e-03  7.1032823979785683e-03  4.8560761473733297e-03  2.4870165979951606e-03  1.1005627642186166e-05  -2.5564446053839350e-03  -5.1977200940529610e-03  -7.8915093710005303e-03  -1.0611194613453074e-02  -1.3323354960243021e-02  -1.5986553701823055e-02  -1.8550633011626832e-02  -2.0956782478203418e-02  -2.3138660853065426e-02  -2.5024810862135458e-02  -2.6542489452902770e-02  -2.7622830780557873e-02  -2.8206980783101659e-02  -2.8252535206645633e-02  -2.7739361915594639e-02  -2.6673785234495088e-02  -2.5090232073063844e-02  -2.3049800013307021e-02  -2.0635734310397974e-02  -1.7946355826565220e-02  -1.5086410819384798e-02  -1.2157999907517500e-02  -9.2521919538965224e-03  -6.4422190972766224e-03  -3.7789001693484428e-03  -1.2887611503059032e-03  1.0247549753694457e-03  3.1766173809941265e-03  5.1917836409711452e-03  7.0930611493035377e-03  8.8861146633143970e-03  1.0544030635055312e-02  1.1996121303829713e-02  1.3127912649712439e-02  1.3799512486469458e-02  1.3884791537429705e-02  1.3322400239515775e-02  1.2156087166650259e-02  1.0538540614775648e-02  8.6906474458924889e-03  6.8368535213493807e-03  5.1503317039027679e-03  3.7290576250828414e-03  2.6020692659792601e-03  1.7515960407050225e-03  1.1362404150995029e-03  7.0746096553066142e-04  4.1849872102701365e-04  2.2819952634689795e-04  1.0235460796533171e-04  1.4065938211041031e-05  -5.6328914800858119e-05  -1.2165278038832158e-04  -1.8854324394001828e-04  -2.5827665544910752e-04  -3.2768364806905702e-04  -3.9013760601240620e-04  -4.3661691906260317e-04  -4.5689694082602216e-04  -4.4084125318683768e-04  -3.8005915693091713e-04  -2.7133255216272700e-04  -1.2285301338905627e-04  8.3530162189409914e-06  2.2309419880837733e-05  1.2432181142057810e-04  2.1701792909551654e-05  -2.1439099452375966e-04  -5.2826680357363016e-04  -8.7135834064392510e-04  -1.2016266626153145e-03  -1.4842566228953221e-03  -1.6935299353958795e-03  -1.8147912302338867e-03  -1.8452674622857128e-03  -1.7932621436553455e-03  -1.6757851191952602e-03  -1.5151705988388257e-03  -1.3354109429281327e-03  -1.1588800589744500e-03  -1.0038970425377961e-03  -8.8330455031704227e-04  -8.0399112262867533e-04  -7.6712681638444065e-04  -7.6882387706299826e-04  -8.0096847606857193e-04  -8.5206576177570062e-04  -9.0805711581568591e-04  -9.5315814533407893e-04  -9.7078181618677744e-04  -9.4452346419792127e-04  -8.5900498231821203e-04  -7.0018633217740613e-04  -4.5471494513510879e-04  -1.0814515478161679e-04  3.5758613183864397e-04  9.6638598193842028e-04  1.7486211427139196e-03  2.7396185848010384e-03  3.9763452030651854e-03  5.4925804182939970e-03  7.3144039520323606e-03  9.4561462743658984e-03  1.1913239309753286e-02  1.4654651338045058e-02  1.7620200057249548e-02  2.0720255933845799e-02  2.3837081359407972e-02  2.6831870696870583e-02  2.9558354959173909e-02  3.1879914009025685e-02  3.3685472606450814e-02  3.4900142143323556e-02  3.5488906893504944e-02  3.5453867604403132e-02  3.4826954929858538e-02  3.3660508569167795e-02  3.2017855964094066e-02  2.9965320229246559e-02  2.7566312173100668e-02  2.4877553026519162e-02  2.1947123188038899e-02  1.8813900954081628e-02  1.5507969734127929e-02  1.2051655406368194e-02  8.4609576249592110e-03  4.7472299138774749e-03  9.1903598296708816e-04  -3.0158446505899315e-03  -7.0482630901809919e-03  -1.1165398354902156e-02  -1.5348324128906824e-02  -1.9569505505995732e-02  -2.3790353481502761e-02  -2.7959053260731684e-02  -3.2008987061688483e-02  -3.5858173308875634e-02  -3.9410214754330736e-02  -4.2557244500604517e-02  -4.5185234371828586e-02  -4.7181743181960299e-02  -4.8445726767531699e-02  -4.8898459170681606e-02  -4.8494052166650294e-02  -4.7227698151170588e-02  -4.5139794877976321e-02  -4.2314656246004355e-02  -3.8873513052008750e-02  -3.4962712286215288e-02  -3.0739051114335447e-02  -2.6354677762001198e-02  -2.1943806655822490e-02  -1.7612761395120160e-02  -1.3433935816793943e-02  -9.4435567426589817e-03  -5.6429089226795607e-03  -2.0029724258061017e-03  1.5269641741290218e-03  5.0055724215706402e-03  8.4794423530896463e-03  1.1956644009505647e-02  1.5376751717717170e-02  1.8585354971308563e-02  2.1327496852609373e-02  2.3278141593819718e-02  2.4120931724961155e-02  2.3662255605334876e-02  2.1932559882023642e-02  1.9210578788852972e-02  1.5941322940126307e-02  1.2590480075844918e-02  9.5182733301438539e-03  6.9266550112064293e-03  4.8754979611866835e-03  3.3310597808585097e-03  2.2136006059354750e-03  1.4298361336648104e-03  8.9052605203629107e-04  5.1854151701143645e-04  2.5196589398902776e-04  4.4705926074241170e-05  -1.3426252823411762e-04  -3.0243571640519009e-04  -4.6573213490381013e-04  -6.2061632312197942e-04  -7.5630976649744270e-04  -8.5710052968604466e-04  -9.0484435184255750e-04  -8.8171455035719886e-04  -7.7371026898458498e-04  -5.7569811885514917e-04  -2.9999318704098180e-04  2.8545313463929292e-06  3.0474068718798230e-05  1.0966025573534219e-04  -9.8365990692326715e-05  -4.9795980400442464e-04  -1.0072111240739705e-03  -1.5517522997705842e-03  -2.0657409307682710e-03  -2.4951291107095119e-03  -2.8013887328465856e-03  -2.9644740221333272e-03  -2.9834650102191309e-03  -2.8745177904941515e-03  -2.6665210134470046e-03  -2.3954781719827904e-03  -2.0987761553584593e-03  -1.8102965873801223e-03  -1.5569284596421765e-03  -1.3566235762577665e-03  -1.2178121922221611e-03  -1.1398112264812985e-03  -1.1138104267409583e-03  -1.1240864609831406e-03  -1.1492323208622333e-03  -1.1633502027458490e-03  -1.1372773614785664e-03  -1.0399249290188304e-03  -8.3965456025993947e-04  -5.0532067622971618e-04  -6.3413687958745195e-06  6.8879818451224252e-04  1.6155592123476752e-03  2.8166285201297434e-03  4.3434714533384655e-03  6.2539906390702837e-03  8.6053281244817589e-03  1.1444178877020317e-02  1.4795689515187917e-02  1.8650353680321603e-02  2.2953253550833639e-02  2.7598130867524405e-02  3.2425473716248585e-02  3.7228907730515182e-02  4.1774339164525248e-02  4.5829453079384207e-02  4.9195138238514374e-02  5.1729315692065438e-02  5.3357507658227034e-02  5.4069980158877894e-02  5.3909374668077090e-02  5.2954015595117053e-02  5.1301302321437266e-02  4.9053943424313018e-02  4.6310147316738479e-02  4.3157673029275721e-02  3.9670994992974183e-02  3.5910638482694525e-02  3.1923837548295676e-02  2.7745881797256098e-02  2.3401749170825166e-02  1.8907810066251758e-02  1.4273519734068967e-02  9.5030973028578120e-03  4.5972338194555000e-03  -4.4510640826202967e-04  -5.6247200688398693e-03  -1.0939966645360965e-02  -1.6384282803046286e-02  -2.1943381768266754e-02  -2.7592157883715641e-02  -3.3291391707563837e-02  -3.8984459714984689e-02  -4.4594397170661090e-02  -5.0021832946067199e-02  -5.5144485933117653e-02  -5.9819034950827930e-02  -6.3886173704106042e-02  -6.7179448962342153e-02  -6.9537981698862050e-02  -7.0822366302372111e-02  -7.0932034652710071e-02  -6.9821398304434484e-02  -6.7511505206160824e-02  -6.4094129505388231e-02  -5.9726340587049002e-02  -5.4615525737212907e-02  -4.8997049747274903e-02  -4.3108490374081994e-02  -3.7165044074726469e-02  -3.1340014087205464e-02  -2.5752584564324582e-02  -2.0463098362846963e-02  -1.5474615186251936e-02  -1.0739147180212292e-02  -6.1676731122749656e-03  -1.6444338910935183e-03  2.9525163280247602e-03  7.7218086262635655e-03  1.2698703072125906e-02  1.7807101929427766e-02  2.2814769761188614e-02  2.7314990705771140e-02  3.0767337727499608e-02  3.2622414593122796e-02  3.2514468224472411e-02  3.0440139396635701e-02  2.6807193967426379e-02  2.2299078527500290e-02  1.7631884800351081e-02  1.3350185656583618e-02  9.7499001157287865e-03  6.9118242356697290e-03  4.7800660508246643e-03  3.2341483217568790e-03  2.1367147375925522e-03  1.3594226295791619e-03  7.9488685879378507e-04  3.6082317486300978e-04  -1.6036993447133725e-08  -3.2210211618739038e-04  -6.2041243098590970e-04  -8.9407943421755632e-04  -1.1301348143817906e-03  -1.3073199215169998e-03  -1.4000808333376718e-03  -1.3828565326385624e-03  -1.2350278018020034e-03  -9.4662505157925582e-04  -5.2528545436482952e-04  -5.0597790353975410e-06  3.7783669531920425e-05  3.9799572321732882e-05  -3.2165975748619325e-04  -9.2805879514520385e-04  -1.6688434447117548e-03  -2.4401989920657201e-03  -3.1493007254771014e-03  -3.7211861278248133e-03  -4.1050220387202300e-03  -4.2781222741488977e-03  -4.2458386475382644e-03  -4.0372743115394995e-03  -3.6978923611990702e-03  -3.2808195967469378e-03  -2.8386019678691191e-03  -2.4166501317623153e-03  -2.0489201293704506e-03  -1.7557787863564035e-03  -1.5436282987259457e-03  -1.4057144319597982e-03  -1.3235627441443207e-03  -1.2686161131347522e-03  -1.2038366531610886e-03  -1.0852386054860464e-03  -8.6346450502023905e-04  -4.8549682828688496e-04  1.0366632284161118e-04  9.5998257961986714e-04  2.1408662642035136e-03  3.7075514082695266e-03  5.7282930104359028e-03  8.2793918704724447e-03  1.1440091625199681e-02  1.5280231131927578e-02  1.9841520938023226e-02  2.5115412307928121e-02  3.1024708472836175e-02  3.7412613515890862e-02  4.4040979400472642e-02  5.0604981750698309e-02  5.6768654254441851e-02  6.2213981812362866e-02  6.6687524123340558e-02  7.0029707296992774e-02  7.2180703280734185e-02  7.3166356564557902e-02  7.3073089354288134e-02  7.2021076333091766e-02  7.0142007419251098e-02  6.7563978474913425e-02  6.4403172611577256e-02  6.0760542409728689e-02  5.6721466021550655e-02  5.2356778095202533e-02  4.7724197204285453e-02  4.2869690174834066e-02  3.7828647887193541e-02  3.2626907241990181e-02  2.7281706643309048e-02  2.1802657712722873e-02  1.6192797163304583e-02  1.0449765083683209e-02  4.5671497535404917e-03  -1.4639579939685389e-03  -7.6531480634428701e-03  -1.4008548398662571e-02  -2.0534284877729961e-02  -2.7227476295217455e-02  -3.4074718583357928e-02  -4.1048065059176159e-02  -4.8100602086640708e-02  -5.5161867585652079e-02  -6.2133566673356982e-02  -6.8886300774442133e-02  -7.5258309349479219e-02  -8.1057458678300678e-02  -8.6067781145539618e-02  -9.0061620936997044e-02  -9.2817733359362942e-02  -9.4144456941744947e-02  -9.3905460738049895e-02  -9.2043950454887613e-02  -8.8600197574964082e-02  -8.3717465489999657e-02  -7.7633178897589250e-02  -7.0655287352044668e-02  -6.3127353842646491e-02  -5.5388747980429608e-02  -4.7737386803156520e-02  -4.0401320243258355e-02  -3.3522562142314437e-02  -2.7153130956618702e-02  -2.1260735680533754e-02  -1.5740903894804942e-02  -1.0433625789523112e-02  -5.1449612285704022e-03  3.2363576835527021e-04  6.1344089462023813e-03  1.2358234003678784e-02  1.8908212696629130e-02  2.5476383448247816e-02  3.1506096081350222e-02  3.6248481997185951e-02  3.8941033140992419e-02  3.9082676198091026e-02  3.6679350149475758e-02  3.2291592742523932e-02  2.6824695013838079e-02  2.1192976265155473e-02  1.6063524597935686e-02  1.1778706730060210e-02  8.4151018456461064e-03  5.8877895303414540e-03  4.0399202689214838e-03  2.7004668558172390e-03  1.7151930719420114e-03  9.6030466455270002e-04  3.4612836874006167e-04  -1.8451326212334920e-04  -6.6043768816424764e-04  -1.0871902273755494e-03  -1.4523666019291828e-03  -1.7309744304134281e-03  -1.8909101340198553e-03  -1.8986475980224003e-03  -1.7252517692924155e-03  -1.3522722997732406e-03  -7.7692591029706562e-04  -1.4138495315558928e-05  4.5115535227800168e-05  -9.0117268404659912e-05  -6.6266378448720227e-04  -1.5273739606438417e-03  -2.5401940056052953e-03  -3.5625440289349252e-03  -4.4704855774166906e-03  -5.1666272242728772e-03  -5.5897353239497596e-03  -5.7196011119976953e-03  -5.5750365106643791e-03  -5.2056963990601999e-03  -4.6800506455647491e-03  -4.0725176046571927e-03  -3.4522648988744931e-03  -2.8750945101686312e-03  -2.3787120213269743e-03  -1.9809076157151543e-03  -1.6798315488772578e-03  -1.4555272004656936e-03  -1.2720359709223522e-03  -1.0796008284442583e-03  -8.1673005941659794e-04  -4.1212398265133690e-04  2.1336400440886792e-04  1.1446161770166719e-03  2.4702908900681463e-03  4.2817826023505996e-03  6.6737283719083213e-03  9.7451142470590512e-03  1.3597049692005024e-02  1.8322405546630682e-02  2.3984216569668027e-02  3.0584743361100432e-02  3.8035272366889805e-02  4.6136354617230688e-02  5.4574706575345820e-02  6.2946218193302539e-02 