<?xml version="1.0"?>
<VTKFile type="UnstructuredGrid"  version="0.1"  >
<UnstructuredGrid>
<Piece  NumberOfPoints="1089" NumberOfCells="1024">
<Points>
<DataArray  type="Float64"  NumberOfComponents="3"  format="ascii">0 0 0  0.03125 0 0  0.0625 0 0  0.09375 0 0  0.125 0 0  0.15625 0 0  0.1875 0 0  0.21875 0 0  0.25 0 0  0.28125 0 0  0.3125 0 0  0.34375 0 0  0.375 0 0  0.40625 0 0  0.4375 0 0  0.46875 0 0  0.5 0 0  0.53125 0 0  0.5625 0 0  0.59375 0 0  0.625 0 0  0.65625 0 0  0.6875 0 0  0.71875 0 0  0.75 0 0  0.78125 0 0  0.8125 0 0  0.84375 0 0  0.875 0 0  0.90625 0 0  0.9375 0 0  0.96875 0 0  1 0 0  0 0.03125 0  0.03125 0.03125 0  0.0625 0.03125 0  0.09375 0.03125 0  0.125 0.03125 0  0.15625 0.03125 0  0.1875 0.03125 0  0.21875 0.03125 0  0.25 0.03125 0  0.28125 0.03125 0  0.3125 0.03125 0  0.34375 0.03125 0  0.375 0.03125 0  0.40625 0.03125 0  0.4375 0.03125 0  0.46875 0.03125 0  0.5 0.03125 0  0.53125 0.03125 0  0.5625 0.03125 0  0.59375 0.03125 0  0.625 0.03125 0  0.65625 0.03125 0  0.6875 0.03125 0  0.71875 0.03125 0  0.75 0.03125 0  0.78125 0.03125 0  0.8125 0.03125 0  0.84375 0.03125 0  0.875 0.03125 0  0.90625 0.03125 0  0.9375 0.03125 0  0.96875 0.03125 0  1 0.03125 0  0 0.0625 0  0.03125 0.0625 0  0.0625 0.0625 0  0.09375 0.0625 0  0.125 0.0625 0  0.15625 0.0625 0  0.1875 0.0625 0  0.21875 0.0625 0  0.25 0.0625 0  0.28125 0.0625 0  0.3125 0.0625 0  0.34375 0.0625 0  0.375 0.0625 0  0.40625 0.0625 0  0.4375 0.0625 0  0.46875 0.0625 0  0.5 0.0625 0  0.53125 0.0625 0  0.5625 0.0625 0  0.59375 0.0625 0  0.625 0.0625 0  0.65625 0.0625 0  0.6875 0.0625 0  0.71875 0.0625 0  0.75 0.0625 0  0.78125 0.0625 0  0.8125 0.0625 0  0.84375 0.0625 0  0.875 0.0625 0  0.90625 0.0625 0  0.9375 0.0625 0  0.96875 0.0625 0  1 0.0625 0  0 0.09375 0  0.03125 0.09375 0  0.0625 0.09375 0  0.09375 0.09375 0  0.125 0.09375 0  0.15625 0.09375 0  0.1875 0.09375 0  0.21875 0.09375 0  0.25 0.09375 0  0.28125 0.09375 0  0.3125 0.09375 0  0.34375 0.09375 0  0.375 0.09375 0  0.40625 0.09375 0  0.4375 0.09375 0  0.46875 0.09375 0  0.5 0.09375 0  0.53125 0.09375 0  0.5625 0.09375 0  0.59375 0.09375 0  0.625 0.09375 0  0.65625 0.09375 0  0.6875 0.09375 0  0.71875 0.09375 0  0.75 0.09375 0  0.78125 0.09375 0  0.8125 0.09375 0  0.84375 0.09375 0  0.875 0.09375 0  0.90625 0.09375 0  0.9375 0.09375 0  0.96875 0.09375 0  1 0.09375 0  0 0.125 0  0.03125 0.125 0  0.0625 0.125 0  0.09375 0.125 0  0.125 0.125 0  0.15625 0.125 0  0.1875 0.125 0  0.21875 0.125 0  0.25 0.125 0  0.28125 0.125 0  0.3125 0.125 0  0.34375 0.125 0  0.375 0.125 0  0.40625 0.125 0  0.4375 0.125 0  0.46875 0.125 0  0.5 0.125 0  0.53125 0.125 0  0.5625 0.125 0  0.59375 0.125 0  0.625 0.125 0  0.65625 0.125 0  0.6875 0.125 0  0.71875 0.125 0  0.75 0.125 0  0.78125 0.125 0  0.8125 0.125 0  0.84375 0.125 0  0.875 0.125 0  0.90625 0.125 0  0.9375 0.125 0  0.96875 0.125 0  1 0.125 0  0 0.15625 0  0.03125 0.15625 0  0.0625 0.15625 0  0.09375 0.15625 0  0.125 0.15625 0  0.15625 0.15625 0  0.1875 0.15625 0  0.21875 0.15625 0  0.25 0.15625 0  0.28125 0.15625 0  0.3125 0.15625 0  0.34375 0.15625 0  0.375 0.15625 0  0.40625 0.15625 0  0.4375 0.15625 0  0.46875 0.15625 0  0.5 0.15625 0  0.53125 0.15625 0  0.5625 0.15625 0  0.59375 0.15625 0  0.625 0.15625 0  0.65625 0.15625 0  0.6875 0.15625 0  0.71875 0.15625 0  0.75 0.15625 0  0.78125 0.15625 0  0.8125 0.15625 0  0.84375 0.15625 0  0.875 0.15625 0  0.90625 0.15625 0  0.9375 0.15625 0  0.96875 0.15625 0  1 0.15625 0  0 0.1875 0  0.03125 0.1875 0  0.0625 0.1875 0  0.09375 0.1875 0  0.125 0.1875 0  0.15625 0.1875 0  0.1875 0.1875 0  0.21875 0.1875 0  0.25 0.1875 0  0.28125 0.1875 0  0.3125 0.1875 0  0.34375 0.1875 0  0.375 0.1875 0  0.40625 0.1875 0  0.4375 0.1875 0  0.46875 0.1875 0  0.5 0.1875 0  0.53125 0.1875 0  0.5625 0.1875 0  0.59375 0.1875 0  0.625 0.1875 0  0.65625 0.1875 0  0.6875 0.1875 0  0.71875 0.1875 0  0.75 0.1875 0  0.78125 0.1875 0  0.8125 0.1875 0  0.84375 0.1875 0  0.875 0.1875 0  0.90625 0.1875 0  0.9375 0.1875 0  0.96875 0.1875 0  1 0.1875 0  0 0.21875 0  0.03125 0.21875 0  0.0625 0.21875 0  0.09375 0.21875 0  0.125 0.21875 0  0.15625 0.21875 0  0.1875 0.21875 0  0.21875 0.21875 0  0.25 0.21875 0  0.28125 0.21875 0  0.3125 0.21875 0  0.34375 0.21875 0  0.375 0.21875 0  0.40625 0.21875 0  0.4375 0.21875 0  0.46875 0.21875 0  0.5 0.21875 0  0.53125 0.21875 0  0.5625 0.21875 0  0.59375 0.21875 0  0.625 0.21875 0  0.65625 0.21875 0  0.6875 0.21875 0  0.71875 0.21875 0  0.75 0.21875 0  0.78125 0.21875 0  0.8125 0.21875 0  0.84375 0.21875 0  0.875 0.21875 0  0.90625 0.21875 0  0.9375 0.21875 0  0.96875 0.21875 0  1 0.21875 0  0 0.25 0  0.03125 0.25 0  0.0625 0.25 0  0.09375 0.25 0  0.125 0.25 0  0.15625 0.25 0  0.1875 0.25 0  0.21875 0.25 0  0.25 0.25 0  0.28125 0.25 0  0.3125 0.25 0  0.34375 0.25 0  0.375 0.25 0  0.40625 0.25 0  0.4375 0.25 0  0.46875 0.25 0  0.5 0.25 0  0.53125 0.25 0  0.5625 0.25 0  0.59375 0.25 0  0.625 0.25 0  0.65625 0.25 0  0.6875 0.25 0  0.71875 0.25 0  0.75 0.25 0  0.78125 0.25 0  0.8125 0.25 0  0.84375 0.25 0  0.875 0.25 0  0.90625 0.25 0  0.9375 0.25 0  0.96875 0.25 0  1 0.25 0  0 0.28125 0  0.03125 0.28125 0  0.0625 0.28125 0  0.09375 0.28125 0  0.125 0.28125 0  0.15625 0.28125 0  0.1875 0.28125 0  0.21875 0.28125 0  0.25 0.28125 0  0.28125 0.28125 0  0.3125 0.28125 0  0.34375 0.28125 0  0.375 0.28125 0  0.40625 0.28125 0  0.4375 0.28125 0  0.46875 0.28125 0  0.5 0.28125 0  0.53125 0.28125 0  0.5625 0.28125 0  0.59375 0.28125 0  0.625 0.28125 0  0.65625 0.28125 0  0.6875 0.28125 0  0.71875 0.28125 0  0.75 0.28125 0  0.78125 0.28125 0  0.8125 0.28125 0  0.84375 0.28125 0  0.875 0.28125 0  0.90625 0.28125 0  0.9375 0.28125 0  0.96875 0.28125 0  1 0.28125 0  0 0.3125 0  0.03125 0.3125 0  0.0625 0.3125 0  0.09375 0.3125 0  0.125 0.3125 0  0.15625 0.3125 0  0.1875 0.3125 0  0.21875 0.3125 0  0.25 0.3125 0  0.28125 0.3125 0  0.3125 0.3125 0  0.34375 0.3125 0  0.375 0.3125 0  0.40625 0.3125 0  0.4375 0.3125 0  0.46875 0.3125 0  0.5 0.3125 0  0.53125 0.3125 0  0.5625 0.3125 0  0.59375 0.3125 0  0.625 0.3125 0  0.65625 0.3125 0  0.6875 0.3125 0  0.71875 0.3125 0  0.75 0.3125 0  0.78125 0.3125 0  0.8125 0.3125 0  0.84375 0.3125 0  0.875 0.3125 0  0.90625 0.3125 0  0.9375 0.3125 0  0.96875 0.3125 0  1 0.3125 0  0 0.34375 0  0.03125 0.34375 0  0.0625 0.34375 0  0.09375 0.34375 0  0.125 0.34375 0  0.15625 0.34375 0  0.1875 0.34375 0  0.21875 0.34375 0  0.25 0.34375 0  0.28125 0.34375 0  0.3125 0.34375 0  0.34375 0.34375 0  0.375 0.34375 0  0.40625 0.34375 0  0.4375 0.34375 0  0.46875 0.34375 0  0.5 0.34375 0  0.53125 0.34375 0  0.5625 0.34375 0  0.59375 0.34375 0  0.625 0.34375 0  0.65625 0.34375 0  0.6875 0.34375 0  0.71875 0.34375 0  0.75 0.34375 0  0.78125 0.34375 0  0.8125 0.34375 0  0.84375 0.34375 0  0.875 0.34375 0  0.90625 0.34375 0  0.9375 0.34375 0  0.96875 0.34375 0  1 0.34375 0  0 0.375 0  0.03125 0.375 0  0.0625 0.375 0  0.09375 0.375 0  0.125 0.375 0  0.15625 0.375 0  0.1875 0.375 0  0.21875 0.375 0  0.25 0.375 0  0.28125 0.375 0  0.3125 0.375 0  0.34375 0.375 0  0.375 0.375 0  0.40625 0.375 0  0.4375 0.375 0  0.46875 0.375 0  0.5 0.375 0  0.53125 0.375 0  0.5625 0.375 0  0.59375 0.375 0  0.625 0.375 0  0.65625 0.375 0  0.6875 0.375 0  0.71875 0.375 0  0.75 0.375 0  0.78125 0.375 0  0.8125 0.375 0  0.84375 0.375 0  0.875 0.375 0  0.90625 0.375 0  0.9375 0.375 0  0.96875 0.375 0  1 0.375 0  0 0.40625 0  0.03125 0.40625 0  0.0625 0.40625 0  0.09375 0.40625 0  0.125 0.40625 0  0.15625 0.40625 0  0.1875 0.40625 0  0.21875 0.40625 0  0.25 0.40625 0  0.28125 0.40625 0  0.3125 0.40625 0  0.34375 0.40625 0  0.375 0.40625 0  0.40625 0.40625 0  0.4375 0.40625 0  0.46875 0.40625 0  0.5 0.40625 0  0.53125 0.40625 0  0.5625 0.40625 0  0.59375 0.40625 0  0.625 0.40625 0  0.65625 0.40625 0  0.6875 0.40625 0  0.71875 0.40625 0  0.75 0.40625 0  0.78125 0.40625 0  0.8125 0.40625 0  0.84375 0.40625 0  0.875 0.40625 0  0.90625 0.40625 0  0.9375 0.40625 0  0.96875 0.40625 0  1 0.40625 0  0 0.4375 0  0.03125 0.4375 0  0.0625 0.4375 0  0.09375 0.4375 0  0.125 0.4375 0  0.15625 0.4375 0  0.1875 0.4375 0  0.21875 0.4375 0  0.25 0.4375 0  0.28125 0.4375 0  0.3125 0.4375 0  0.34375 0.4375 0  0.375 0.4375 0  0.40625 0.4375 0  0.4375 0.4375 0  0.46875 0.4375 0  0.5 0.4375 0  0.53125 0.4375 0  0.5625 0.4375 0  0.59375 0.4375 0  0.625 0.4375 0  0.65625 0.4375 0  0.6875 0.4375 0  0.71875 0.4375 0  0.75 0.4375 0  0.78125 0.4375 0  0.8125 0.4375 0  0.84375 0.4375 0  0.875 0.4375 0  0.90625 0.4375 0  0.9375 0.4375 0  0.96875 0.4375 0  1 0.4375 0  0 0.46875 0  0.03125 0.46875 0  0.0625 0.46875 0  0.09375 0.46875 0  0.125 0.46875 0  0.15625 0.46875 0  0.1875 0.46875 0  0.21875 0.46875 0  0.25 0.46875 0  0.28125 0.46875 0  0.3125 0.46875 0  0.34375 0.46875 0  0.375 0.46875 0  0.40625 0.46875 0  0.4375 0.46875 0  0.46875 0.46875 0  0.5 0.46875 0  0.53125 0.46875 0  0.5625 0.46875 0  0.59375 0.46875 0  0.625 0.46875 0  0.65625 0.46875 0  0.6875 0.46875 0  0.71875 0.46875 0  0.75 0.46875 0  0.78125 0.46875 0  0.8125 0.46875 0  0.84375 0.46875 0  0.875 0.46875 0  0.90625 0.46875 0  0.9375 0.46875 0  0.96875 0.46875 0  1 0.46875 0  0 0.5 0  0.03125 0.5 0  0.0625 0.5 0  0.09375 0.5 0  0.125 0.5 0  0.15625 0.5 0  0.1875 0.5 0  0.21875 0.5 0  0.25 0.5 0  0.28125 0.5 0  0.3125 0.5 0  0.34375 0.5 0  0.375 0.5 0  0.40625 0.5 0  0.4375 0.5 0  0.46875 0.5 0  0.5 0.5 0  0.53125 0.5 0  0.5625 0.5 0  0.59375 0.5 0  0.625 0.5 0  0.65625 0.5 0  0.6875 0.5 0  0.71875 0.5 0  0.75 0.5 0  0.78125 0.5 0  0.8125 0.5 0  0.84375 0.5 0  0.875 0.5 0  0.90625 0.5 0  0.9375 0.5 0  0.96875 0.5 0  1 0.5 0  0 0.53125 0  0.03125 0.53125 0  0.0625 0.53125 0  0.09375 0.53125 0  0.125 0.53125 0  0.15625 0.53125 0  0.1875 0.53125 0  0.21875 0.53125 0  0.25 0.53125 0  0.28125 0.53125 0  0.3125 0.53125 0  0.34375 0.53125 0  0.375 0.53125 0  0.40625 0.53125 0  0.4375 0.53125 0  0.46875 0.53125 0  0.5 0.53125 0  0.53125 0.53125 0  0.5625 0.53125 0  0.59375 0.53125 0  0.625 0.53125 0  0.65625 0.53125 0  0.6875 0.53125 0  0.71875 0.53125 0  0.75 0.53125 0  0.78125 0.531
[...]
<PointData  Scalars="v_sol"> 
<DataArray  type="Float64"  Name="v_sol"  format="ascii">4.4689902177022797e-05  3.3383593516201650e-04  4.5750156964321175e-04  3.8407976359737560e-04  7.9934364412758254e-05  -1.2058940066611414e-04  -2.1138142610320232e-04  -3.7987780480638650e-04  1.6754058987107788e-04  -1.2708265795314036e-03  -4.8915733868800130e-03  -6.9342798040272066e-03  -5.9102166206731156e-03  -3.5871071656866475e-03  -1.2417141683798772e-03  5.2557378926370245e-04  1.7492091826323429e-03  2.5422900080111148e-03  3.1002355607412640e-03  3.5289247124217684e-03  3.9161882546831115e-03  4.1973700790888671e-03  4.1847897651089349e-03  3.5878152342804447e-03  2.2402850977687946e-03  4.1286518691604731e-04  -1.5558222603595741e-03  -2.1439102673199454e-03  -1.5890018559424821e-03  -8.8669239087819235e-04  -4.9074667936859471e-04  -2.1073979483934144e-04  -1.2608878458550790e-05  1.4863877384671290e-04  -1.8892929899796836e-03  -2.8031315244960876e-03  -2.1735092004982392e-03  -6.5409483211799498e-04  5.5506275487272861e-04  6.8776455826409402e-04  -2.8919842346511107e-04  1.2043004740300292e-03  9.2010740080296794e-03  1.5737936190716367e-02  2.0795982213283392e-02  2.4973347196012147e-02  2.5832921969955569e-02  2.2267347751235383e-02  1.4433295703435607e-02  3.5254146739639868e-03  -9.1253952411118663e-03  -2.1847520637468684e-02  -3.2568295765005355e-02  -3.8556478162510746e-02  -3.7212190568028485e-02  -2.7583269185269974e-02  -1.2488843416265874e-02  1.8212147235661018e-03  9.8067211164481905e-03  1.1863935351950022e-02  1.0071647700270683e-02  7.0540333654961623e-03  4.1666964669375547e-03  2.3027838105592687e-03  9.1160924493577117e-04  -1.9237742654861024e-04  -1.4586024395251687e-04  -7.2377317458068077e-03  -8.6149066139232615e-03  -5.5341420669710820e-03  -2.4835689722505741e-03  3.5174219135407649e-03  9.4491484631048124e-03  1.8211499138412589e-02  3.7043571332260508e-02  6.0054659786955580e-02  7.6993312454031529e-02  8.2237581863068829e-02  7.6718217779501302e-02  6.3414225490590170e-02  4.4958757343118820e-02  2.2963367626906313e-02  -1.4257227638824631e-03  -2.7371476100982256e-02  -5.3568860737153737e-02  -7.7753238862036875e-02  -9.5877543045680441e-02  -1.0258356071935698e-01  -9.2997688420822303e-02  -6.7094137683326116e-02  -3.2659328560079200e-02  -3.3963594401880451e-03  1.3462094748651302e-02  2.0841036152505755e-02  1.9806039713414349e-02  1.4762575799460203e-02  9.2990479442494715e-03  4.9168233270099580e-03  4.3629960933491997e-05  -8.1440203429334961e-04  -1.4852035548457650e-02  -1.3418722051920922e-02  -2.3211119543215266e-03  5.8732468660829150e-03  1.6548435245650018e-02  4.0759657204110497e-02  7.6588699516592987e-02  1.1374830114426544e-01  1.3579114065737216e-01  1.3979669930008728e-01  1.2899563719492574e-01  1.0916398775430348e-01  8.4224602252760419e-02  5.6782037083630325e-02  2.7638476687023777e-02  -2.8705058763029635e-03  -3.5055191688180491e-02  -6.8737732511408856e-02  -1.0311285912280314e-01  -1.3512217665066256e-01  -1.5899076020473593e-01  -1.6595108452433677e-01  -1.4830438533697493e-01  -1.0578839279996048e-01  -5.2308482325578186e-02  -1.0246153492237993e-02  1.1044753988543637e-02  2.1364856945071238e-02  2.1361948404870074e-02  1.7014907706670520e-02  1.0456845010578286e-02  6.6512429351009265e-04  -2.3860765639555671e-03  -2.3616925414908483e-02  -1.4108904379941552e-02  6.9433196854626336e-03  2.7885186505056846e-02  6.0594790466974038e-02  1.1270714114997443e-01  1.6234873023837901e-01  1.8897907654519550e-01  1.9156224298018226e-01  1.7648823158491950e-01  1.5120601194098116e-01  1.2145875724438743e-01  9.0292888022283635e-02  5.9131098192489115e-02  2.7912451528308888e-02  -3.5977583252289058e-03  -3.6159150482445196e-02  -7.0262674696490210e-02  -1.0656272468182801e-01  -1.4476334519918443e-01  -1.8262843331067785e-01  -2.1331097906749658e-01  -2.2453180718731286e-01  -2.0256679305130942e-01  -1.4375548120437223e-01  -6.7706771408450064e-02  -1.1918241257281996e-02  1.0770261417869624e-02  2.1642868409922467e-02  2.0895254927726661e-02  1.5252130276730971e-02  1.2251736754738329e-03  -5.7744090098132408e-03  -2.9618150654231352e-02  -5.0767907165308471e-03  2.9531535026896948e-02  7.3948746878171059e-02  1.3914125425432869e-01  2.0114284183043563e-01  2.3354819706275953e-01  2.3547766284811833e-01  2.1632539114084115e-01  1.8634603150158469e-01  1.5321609348262122e-01  1.2018364245159170e-01  8.8379714567560858e-02  5.7261594684241107e-02  2.6466724302027050e-02  -4.6502926312896502e-03  -3.6242981405933163e-02  -6.8686710397634673e-02  -1.0213960194935423e-01  -1.3737700050053051e-01  -1.7524846394757021e-01  -2.1583968456177560e-01  -2.5378971892785857e-01  -2.7366685772665822e-01  -2.5226990417411349e-01  -1.7722499310004219e-01  -7.4677549355833275e-02  -6.7341323670815295e-03  1.3683224947793551e-02  2.2881308163040126e-02  1.7929431276889028e-02  1.3332850187237064e-03  -1.0815323688894721e-02  -2.7112885905934941e-02  1.7702847410861540e-02  7.4693545204769243e-02  1.4832503996453617e-01  2.2432468069499656e-01  2.6796095727229091e-01  2.7269205537318902e-01  2.5189727923725647e-01  2.1895983950538822e-01  1.8445856768387170e-01  1.5138910353940854e-01  1.2007251876709002e-01  8.9273085356212686e-02  5.8438640857399839e-02  2.7175772950024480e-02  -4.5895484506843394e-03  -3.6907974633805053e-02  -6.9672156823937265e-02  -1.0270104903130541e-01  -1.3565980645104653e-01  -1.6886055630353522e-01  -2.0379181828217491e-01  -2.4333491943775479e-01  -2.8556619931621691e-01  -3.1358378952814148e-01  -2.9221276509593624e-01  -1.9673797128999174e-01  -6.4917550904271981e-02  3.5953933449936340e-03  1.9905021511328485e-02  1.9120800626211531e-02  2.1430080145309963e-03  -1.4711787723076927e-02  -1.1515102422949390e-02  5.6997223057537981e-02  1.3946006758474197e-01  2.2934998395806377e-01  2.9179833556674539e-01  3.0526576832217139e-01  2.8580131823139798e-01  2.5173882471265974e-01  2.1654098443210795e-01  1.8442491192174210e-01  1.5351090321893374e-01  1.2299156879361850e-01  9.1667696991835024e-02  6.0275341576129723e-02  2.8270941141156313e-02  -3.7803247695047007e-03  -3.6454306334138348e-02  -6.9320199886789127e-02  -1.0278824807545209e-01  -1.3624259184484955e-01  -1.6951772043068911e-01  -2.0181279589747581e-01  -2.3458457391201357e-01  -2.7219116322947906e-01  -3.1646841627749284e-01  -3.4830230344253293e-01  -3.1850812966211584e-01  -1.9089437574854998e-01  -3.3487770364413513e-02  1.1136798232708399e-02  2.3155852089307483e-02  1.6747926755291331e-03  -1.3386705182779114e-02  1.9585712414093414e-02  1.1184223273866799e-01  2.1259179404994882e-01  2.9793792145789100e-01  3.3128706140499720e-01  3.1807491842294616e-01  2.8559916020266829e-01  2.4965405875439978e-01  2.1833565986331310e-01  1.8762646393949334e-01  1.5685456097221268e-01  1.2522937939934201e-01  9.3499270612793617e-02  6.1559897314772613e-02  2.9442031274142046e-02  -2.9271650314233338e-03  -3.5605244230076327e-02  -6.8578761034312000e-02  -1.0180228840253885e-01  -1.3527472527070733e-01  -1.6873703697662612e-01  -2.0194736692763143e-01  -2.3396214341904140e-01  -2.6602534571868425e-01  -3.0357260368517330e-01  -3.5035507173365360e-01  -3.7938783022423872e-01  -3.2341906894038597e-01  -1.4613138466943745e-01  6.5504156182955011e-03  1.7105425922868390e-02  3.2868490031304279e-03  -4.1510525372182357e-03  6.4504905007975885e-02  1.7400806907828770e-01  2.7969705179808768e-01  3.4501282346070961e-01  3.4937470693842781e-01  3.2041378998097098e-01  2.8445995728025625e-01  2.5186377672976235e-01  2.2199567069717324e-01  1.9043771213815888e-01  1.5924100390324777e-01  1.2717509163182519e-01  9.5555856184273327e-02  6.3216234529385573e-02  3.1092828074479363e-02  -1.6310709097410836e-03  -3.4275713018007879e-02  -6.7479869669020504e-02  -1.0065684314167105e-01  -1.3431908214722055e-01  -1.6789036054425074e-01  -2.0165309469263792e-01  -2.3455338588481658e-01  -2.6600894348871695e-01  -2.9743323574690161e-01  -3.3764723504299687e-01  -3.8802573338300494e-01  -4.0147604232970679e-01  -2.8898347458541201e-01  -5.5093767385892459e-02  1.4100177377547651e-02  1.4107446874639272e-02  1.1897490081878039e-02  1.1766589217245602e-01  2.3502207476028372e-01  3.3389698238559939e-01  3.7332765307428212e-01  3.5559786456476949e-01  3.2023013151131841e-01  2.8602900351140065e-01  2.5584828107166369e-01  2.2504683356857552e-01  1.9336289776773227e-01  1.6191436247270130e-01  1.2957146437252703e-01  9.7574515339035606e-02  6.4984591477195694e-02  3.2720263753830560e-02  -1.4447864400324127e-04  -3.2851444144634284e-02  -6.6083452834722084e-02  -9.9221294190023318e-02  -1.3275173255169892e-01  -1.6627735182696923e-01  -2.0024335843520449e-01  -2.3439788920043242e-01  -2.6780325612279166e-01  -2.9847320231077873e-01  -3.2995486702713028e-01  -3.7625168047286861e-01  -4.2721746973155916e-01  -3.9483387329238567e-01  -1.8653261663502183e-01  2.3521243599767476e-02  1.5503339707055969e-03  3.0718863613293672e-02  1.7252895830402204e-01  2.8860505917981877e-01  3.7405387427609710e-01  3.8879270469728416e-01  3.5822834436485457e-01  3.2237914328788103e-01  2.9010246521051519e-01  2.6001251138134096e-01  2.2811598095656657e-01  1.9640251035098719e-01  1.6405701321823532e-01  1.3167984303501229e-01  9.9552133526280867e-02  6.7085907701393777e-02  3.4601494816288401e-02  1.7191988631950358e-03  -3.1184925620285464e-02  -6.4449848805974277e-02  -9.7814461116847842e-02  -1.3143853779457207e-01  -1.6511388580262074e-01  -1.9883375369324066e-01  -2.3283545525560778e-01  -2.6741055273656938e-01  -3.0115451110995650e-01  -3.3111437262399646e-01  -3.6575267159687114e-01  -4.2264189350870901e-01  -4.5315561864646747e-01  -3.1477767126885531e-01  -8.3246756781172205e-03  -1.4547479417665255e-02  4.7636221327947557e-02  2.2315075654506727e-01  3.3240025848462001e-01  4.0268793613614567e-01  3.9783860441645991e-01  3.6111340584779578e-01  3.2596789312152274e-01  2.9449512203749217e-01  2.6358336985670194e-01  2.3111072372230404e-01  1.9911572166281574e-01  1.6646766781683731e-01  1.3448695878421157e-01  1.0196150403259108e-01  6.9307252487526561e-02  3.6533664328530634e-02  3.7010041545467937e-03  -2.9312368510347686e-02  -6.2496648889787648e-02  -9.5926510731007567e-02  -1.2956481110424806e-01  -1.6352196529099375e-01  -1.9765135763942543e-01  -2.3192095480594996e-01  -2.6645198180146845e-01  -3.0157330794405629e-01  -3.3465226043993757e-01  -3.6439039680771557e-01  -4.1075060333576036e-01  -4.7287688978997011e-01  -4.1512026386264622e-01  -1.0146186866002602e-01  1.9864471045125887e-02  5.8543927599306808e-02  2.6576903290611426e-01  3.6614404623018704e-01  4.2284726180503296e-01  4.0412365911081399e-01  3.6512575289499150e-01  3.3074459528039812e-01  2.9912017963035142e-01  2.6716678286257634e-01  2.3425679399152233e-01  2.0186439476650941e-01  1.6915911329411798e-01  1.3683522337106085e-01  1.0381492926313740e-01  7.1361111853929932e-02  3.8636050645322238e-02  5.8750358719233580e-03  -2.7208874744633623e-02  -6.0388335872077592e-02  -9.3893243541607996e-02  -1.2757269614330652e-01  -1.6158847332822351e-01  -1.9586329051921073e-01  -2.3048034278357377e-01  -2.6543392462815824e-01  -3.0123625181542013e-01  -3.3708262871134048e-01  -3.6804441242141822e-01  -4.0380006902157156e-01  -4.7323590439893293e-01  -4.8446952367544854e-01  -2.1703989964719753e-01  7.0443887364157284e-02  6.1351343245601410e-02  2.9796474961042529e-01  3.9092017500626774e-01  4.3696528690310893e-01  4.0964505284595287e-01  3.6977079103402211e-01  3.3528549645427169e-01  3.0308641623708293e-01  2.7031952017313365e-01  2.3712527884857346e-01  2.0448843715007617e-01  1.7168856406250685e-01  1.3904403566234114e-01  1.0629865106997274e-01  7.3953336679673118e-02  4.0966495505179099e-02  8.1711893419060110e-03  -2.4867756117515620e-02  -5.7974484430182376e-02  -9.1437629835360273e-02  -1.2515529640941284e-01  -1.5929729519377817e-01  -1.9384147541556102e-01  -2.2881996420661296e-01  -2.6411600559185294e-01  -3.0010849094381364e-01  -3.3771209844291872e-01  -3.7293960015791872e-01  -4.0338094336404934e-01  -4.6669133316453049e-01  -5.2745059696616037e-01  -3.2343326522785010e-01  1.0171417453368840e-01  5.5360678929819010e-02  3.1868808621021755e-01  4.0776591232063081e-01  4.4654554326094903e-01  4.1480074846706250e-01  3.7442256906443105e-01  3.3972042383509027e-01  3.0687819764091301e-01  2.7343461175003908e-01  2.3995572206144522e-01  2.0703794184437821e-01  1.7402696505683418e-01  1.4126085385396644e-01  1.0859472175510013e-01  7.5854208215405755e-02  4.3023058614979119e-02  1.0567679371461487e-02  -2.2319629632726712e-02  -5.5322321525996650e-02  -8.8676385726897428e-02  -1.2233583918259845e-01  -1.5644533973845837e-01  -1.9105752881363303e-01  -2.2633982208345854e-01  -2.6225602660061542e-01  -2.9881289299449687e-01  -3.3682695816704539e-01  -3.7592929297647493e-01  -4.0708491886685139e-01  -4.5946318133904523e-01  -5.5035117774078424e-01  -4.1237069309384566e-01  1.1066885140122180e-01  4.1548593032886230e-02  3.2720785075780817e-01  4.1761865004958315e-01  4.5224938780210394e-01  4.1955796214437263e-01  3.7843264105978042e-01  3.4323281205309014e-01  3.0982915685117340e-01  2.7598634056504606e-01  2.4231204135342904e-01  2.0920653318294233e-01  1.7612666782809958e-01  1.4338082705916991e-01  1.1071527535729374e-01  7.8101331973460433e-02  4.5804964503643082e-02  1.3276803140961829e-02  -1.9562754899339681e-02  -5.2343998430316271e-02  -8.5502735255758883e-02  -1.1901991119798312e-01  -1.5308466571352114e-01  -1.8770939793033928e-01  -2.2313312020163584e-01  -2.5929525591302799e-01  -2.9652042199137041e-01  -3.3490845058351015e-01  -3.7647121977276682e-01  -4.1122582249417156e-01  -4.5329018724022840e-01  -5.5862225297616563e-01  -4.8298881055712695e-01  9.9730925926268033e-02  2.1933331856983092e-02  3.2319505579768121e-01  4.2066736929562831e-01  4.5439005564942681e-01  4.2357338387757415e-01  3.8186549189108743e-01  3.4622220938127241e-01  3.1239427993115454e-01  2.7826818970906347e-01  2.4438901396896998e-01  2.1110315446911135e-01  1.7797495143038267e-01  1.4522419404324818e-01  1.1263085290941802e-01  8.0252755606010862e-02  4.8020463350526864e-02  1.5503673936039946e-02  -1.6654441972916417e-02  -4.9040675518177292e-02  -8.1921141608505624e-02  -1.1510617235360086e-01  -1.4897065184693489e-01  -1.8342087530131421e-01  -2.1893263950234229e-01  -2.5525305632195117e-01  -2.9301785585100054e-01  -3.3162246699703174e-01  -3.7426052733093895e-01  -4.1373292783535842e-01  -4.4795969668934726e-01  -5.5672332893805099e-01  -5.3800359731947034e-01  7.5956588429632543e-02  2.2338668836314673e-05  3.0611408646927096e-01  4.1667803894875000e-01  4.5273734748680899e-01  4.2641846170551750e-01  3.8430272911368879e-01  3.4801622315417408e-01  3.1401164577923180e-01  2.7981735847012656e-01  2.4583971732346904e-01  2.1249682041696491e-01  1.7944030557467716e-01  1.4678762336651707e-01  1.1440531692483101e-01  8.2297095720049410e-02  5.0353084172078164e-02  1.8498344377954303e-02  -1.3149691122165618e-02  -4.5483374142932805e-02  -7.7892067815051730e-02  -1.1059922122156954e-01  -1.4415298248100328e-01  -1.7821539362610059e-01  -2.1358202436717103e-01  -2.4975924380781639e-01  -2.8781438319193992e-01  -3.2679500054072042e-01  -3.6953239804147764e-01  -4.1308548112401455e-01  -4.4263538269142233e-01  -5.4750370541351467e-01  -5.7994540714946596e-01  4.3840776798871398e-02  -1.9659987475581914e-02  2.7573202874746916e-01  4.0445252617611482e-01  4.4707196501765084e-01  4.2770456342335011e-01  3.8650619415358578e-01  3.4930313655948481e-01  3.1510028613838170e-01  2.8091087311851626e-01  2.4685327389998410e-01  2.1343139037359166e-01  1.8044566783404925e-01  1.4792387207106569e-01  1.1580480794321632e-01  8.4036085661302981e-02  5.2529437055939744e-02  2.1185085466533613e-02  -1.0229357867714201e-02  -4.1820006917909193e-02  -7.3231881781761127e-02  -1.0542147564250115e-01  -1.3842310098988198e-01  -1.7189899630363129e-01  -2.0697208143295012e-01  -2.4277492155461430e-01  -2.8074612520287345e-01  -3.1985901408992307e-01  -3.6230075717562765e-01  -4.0883968137032367e-01  -4.3624593134716072e-01  -5.3275191993967153e-01  -6.1095808537005269e-01  6.6242741688127332e-03  -3.1749517531851700e-02  2.3208515511624220e-01  3.8246560272161428e-01  4.3643968965249397e-01  4.2668765053145541e-01  3.8782273521483646e-01  3.4962462063665461e-01  3.1520107062839142e-01  2.8117173388949218e-01  2.4714963949547600e-01  2.1374140954379714e-01  1.8091569318548012e-01  1.4863444898783598e-01  1.1686784850282633e-01  8.5568439171095648e-02  5.4606452237973994e-02  2.3948360492623794e-02  -6.6891575061992139e-03  -3.7156817266498186e-02  -6.8105298794438343e-02  -9.9736599170101664e-02  -1.3174687890402825e-01  -1.6443016006238736e-01  -1.9889051373016237e-01  -2.3399945164337935e-01  -2.7166835995886207e-01  -3.1055666973018625e-01  -3.5254254339208757e-01  -4.0057749552846145e-01  -4.2788620424731943e-01  -5.1322864641516885e-01  -6.3249497911652930e-01  -3.4692031555125583e-02  -3.2513038818608786e-02  1.7714381006459096e-01  3.4857509639709827e-01  4.1992297622015151e-01  4.2275791806880214e-01  3.8927479663871217e-01  3.5010472037558099e-01  3.1480957915704005e-01  2.8082329091258473e-01  2.4685315961966461e-01  2.1338510520811649e-01  1.8066152881990233e-01  1.4866026561778026e-01  1.1730066914796583e-01  8.6607676580597981e-02  5.6296955893636570e-02  2.6520181746674910e-02  -3.3081576159729449e-03  -3.2859841479787773e-02  -6.3084453180609026e-02  -9.3087980080816340e-02  -1.2396747542286633e-01  -1.5583126496478206e-01  -1.8932161892029678e-01  -2.2335052721745818e-01  -2.6039221501415766e-01  -2.9849511209494295e-01  -3.4018871370829940e-01  -3.8821313397173829e-01  -4.1662950953421096e-01  -4.8920516033344918e-01  -6.4549293211381886e-01  -8.0026230817252686e-02  -2.2579238055456266e-02  1.1601728850286055e-01  3.0152228579308227e-01  3.9514403568385564e-01  4.1422578335361987e-01  3.8895253130290958e-01  3.5045393486053178e-01  3.1379032160097098e-01  2.7948920924688864e-01  2.4564381050148310e-01  2.1225946633437626e-01  1.7966231225245702e-01  1.4804184543729945e-01  1.1714867351470161e-01  8.7234108787632034e-02  5.7681799801750366e-02  2.9005109474621701e-02  1.5485379495504118e-04  -2.7992254948740726e-02  -5.6912010331105531e-02  -8.5335800143518131e-02  -1.1562482880583874e-01  -1.4589843238349051e-01  -1.7795019897872733e-01  -2.1070394753181029e-01  -2.4689564489455257e-01  -2.8349272895201472e-01  -3.2502735902520330e-01  -3.7151381783539011e-01  -4.0173706249960039e-01  -4.6048505292680575e-01  -6.5046164937424567e-01  -1.3021392517738736e-01  -1.0023132942080683e-02  5.9323087698609597e-02  2.4094685920286854e-01  3.5974146283233360e-01  3.9948862800028873e-01  3.8707163257434407e-01  3.5127098170003351e-01  3.1304404482775344e-01  2.7755516730950069e-01  2.4346114957136877e-01  2.1009857400787454e-01  1.7755156367062966e-01  1.4636734326991127e-01  1.1597902975456589e-01  8.7036855810711453e-02  5.8379188665841825e-02  3.1073018531400754e-02  3.3797161301135975e-03  -2.3125330412161221e-02  -5.0840173682432724e-02  -7.7616208244712506e-02  -1.0647429359162575e-01  -1.3421741238075191e-01  -1.6517625547950049e-01  -1.9604291552119665e-01  -2.3079787480977451e-01  -2.6540276715817951e-01  -3.0699953068869679e-01  -3.5022545035308089e-01  -3.8237948910901987e-01  -4.2677934130360795e-01  -6.4755998140142279e-01  -1.8623942591110682e-01  -5.8165897760748828e-03  1.9515433312956142e-02  1.7040614874361701e-01  3.0934898186102272e-01  3.7442875796416691e-01  3.7904526419712875e-01  3.5106371522302454e-01  3.1244551182187280e-01  2.7497024667490649e-01  2.3993213875171718e-01  2.0668667559207571e-01  1.7426593312669267e-01  1.4370793420560160e-01  1.1387195213907420e-01  8.6146398230511137e-02  5.8488278983228857e-02  3.2869809576159439e-02  6.4590203258113781e-03  -1.8027375946152790e-02  -4.4252367481582053e-02  -6.8617257008010163e-02  -9.5739253787187492e-02  -1