<?xml version="1.0"?>
<VTKFile type="UnstructuredGrid"  version="0.1"  >
<UnstructuredGrid>
<Piece  NumberOfPoints="1089" NumberOfCells="1024">
<Points>
<DataArray  type="Float64"  NumberOfComponents="3"  format="ascii">0 0 0  0.03125 0 0  0.0625 0 0  0.09375 0 0  0.125 0 0  0.15625 0 0  0.1875 0 0  0.21875 0 0  0.25 0 0  0.28125 0 0  0.3125 0 0  0.34375 0 0  0.375 0 0  0.40625 0 0  0.4375 0 0  0.46875 0 0  0.5 0 0  0.53125 0 0  0.5625 0 0  0.59375 0 0  0.625 0 0  0.65625 0 0  0.6875 0 0  0.71875 0 0  0.75 0 0  0.78125 0 0  0.8125 0 0  0.84375 0 0  0.875 0 0  0.90625 0 0  0.9375 0 0  0.96875 0 0  1 0 0  0 0.03125 0  0.03125 0.03125 0  0.0625 0.03125 0  0.09375 0.03125 0  0.125 0.03125 0  0.15625 0.03125 0  0.1875 0.03125 0  0.21875 0.03125 0  0.25 0.03125 0  0.28125 0.03125 0  0.3125 0.03125 0  0.34375 0.03125 0  0.375 0.03125 0  0.40625 0.03125 0  0.4375 0.03125 0  0.46875 0.03125 0  0.5 0.03125 0  0.53125 0.03125 0  0.5625 0.03125 0  0.59375 0.03125 0  0.625 0.03125 0  0.65625 0.03125 0  0.6875 0.03125 0  0.71875 0.03125 0  0.75 0.03125 0  0.78125 0.03125 0  0.8125 0.03125 0  0.84375 0.03125 0  0.875 0.03125 0  0.90625 0.03125 0  0.9375 0.03125 0  0.96875 0.03125 0  1 0.03125 0  0 0.0625 0  0.03125 0.0625 0  0.0625 0.0625 0  0.09375 0.0625 0  0.125 0.0625 0  0.15625 0.0625 0  0.1875 0.0625 0  0.21875 0.0625 0  0.25 0.0625 0  0.28125 0.0625 0  0.3125 0.0625 0  0.34375 0.0625 0  0.375 0.0625 0  0.40625 0.0625 0  0.4375 0.0625 0  0.46875 0.0625 0  0.5 0.0625 0  0.53125 0.0625 0  0.5625 0.0625 0  0.59375 0.0625 0  0.625 0.0625 0  0.65625 0.0625 0  0.6875 0.0625 0  0.71875 0.0625 0  0.75 0.0625 0  0.78125 0.0625 0  0.8125 0.0625 0  0.84375 0.0625 0  0.875 0.0625 0  0.90625 0.0625 0  0.9375 0.0625 0  0.96875 0.0625 0  1 0.0625 0  0 0.09375 0  0.03125 0.09375 0  0.0625 0.09375 0  0.09375 0.09375 0  0.125 0.09375 0  0.15625 0.09375 0  0.1875 0.09375 0  0.21875 0.09375 0  0.25 0.09375 0  0.28125 0.09375 0  0.3125 0.09375 0  0.34375 0.09375 0  0.375 0.09375 0  0.40625 0.09375 0  0.4375 0.09375 0  0.46875 0.09375 0  0.5 0.09375 0  0.53125 0.09375 0  0.5625 0.09375 0  0.59375 0.09375 0  0.625 0.09375 0  0.65625 0.09375 0  0.6875 0.09375 0  0.71875 0.09375 0  0.75 0.09375 0  0.78125 0.09375 0  0.8125 0.09375 0  0.84375 0.09375 0  0.875 0.09375 0  0.90625 0.09375 0  0.9375 0.09375 0  0.96875 0.09375 0  1 0.09375 0  0 0.125 0  0.03125 0.125 0  0.0625 0.125 0  0.09375 0.125 0  0.125 0.125 0  0.15625 0.125 0  0.1875 0.125 0  0.21875 0.125 0  0.25 0.125 0  0.28125 0.125 0  0.3125 0.125 0  0.34375 0.125 0  0.375 0.125 0  0.40625 0.125 0  0.4375 0.125 0  0.46875 0.125 0  0.5 0.125 0  0.53125 0.125 0  0.5625 0.125 0  0.59375 0.125 0  0.625 0.125 0  0.65625 0.125 0  0.6875 0.125 0  0.71875 0.125 0  0.75 0.125 0  0.78125 0.125 0  0.8125 0.125 0  0.84375 0.125 0  0.875 0.125 0  0.90625 0.125 0  0.9375 0.125 0  0.96875 0.125 0  1 0.125 0  0 0.15625 0  0.03125 0.15625 0  0.0625 0.15625 0  0.09375 0.15625 0  0.125 0.15625 0  0.15625 0.15625 0  0.1875 0.15625 0  0.21875 0.15625 0  0.25 0.15625 0  0.28125 0.15625 0  0.3125 0.15625 0  0.34375 0.15625 0  0.375 0.15625 0  0.40625 0.15625 0  0.4375 0.15625 0  0.46875 0.15625 0  0.5 0.15625 0  0.53125 0.15625 0  0.5625 0.15625 0  0.59375 0.15625 0  0.625 0.15625 0  0.65625 0.15625 0  0.6875 0.15625 0  0.71875 0.15625 0  0.75 0.15625 0  0.78125 0.15625 0  0.8125 0.15625 0  0.84375 0.15625 0  0.875 0.15625 0  0.90625 0.15625 0  0.9375 0.15625 0  0.96875 0.15625 0  1 0.15625 0  0 0.1875 0  0.03125 0.1875 0  0.0625 0.1875 0  0.09375 0.1875 0  0.125 0.1875 0  0.15625 0.1875 0  0.1875 0.1875 0  0.21875 0.1875 0  0.25 0.1875 0  0.28125 0.1875 0  0.3125 0.1875 0  0.34375 0.1875 0  0.375 0.1875 0  0.40625 0.1875 0  0.4375 0.1875 0  0.46875 0.1875 0  0.5 0.1875 0  0.53125 0.1875 0  0.5625 0.1875 0  0.59375 0.1875 0  0.625 0.1875 0  0.65625 0.1875 0  0.6875 0.1875 0  0.71875 0.1875 0  0.75 0.1875 0  0.78125 0.1875 0  0.8125 0.1875 0  0.84375 0.1875 0  0.875 0.1875 0  0.90625 0.1875 0  0.9375 0.1875 0  0.96875 0.1875 0  1 0.1875 0  0 0.21875 0  0.03125 0.21875 0  0.0625 0.21875 0  0.09375 0.21875 0  0.125 0.21875 0  0.15625 0.21875 0  0.1875 0.21875 0  0.21875 0.21875 0  0.25 0.21875 0  0.28125 0.21875 0  0.3125 0.21875 0  0.34375 0.21875 0  0.375 0.21875 0  0.40625 0.21875 0  0.4375 0.21875 0  0.46875 0.21875 0  0.5 0.21875 0  0.53125 0.21875 0  0.5625 0.21875 0  0.59375 0.21875 0  0.625 0.21875 0  0.65625 0.21875 0  0.6875 0.21875 0  0.71875 0.21875 0  0.75 0.21875 0  0.78125 0.21875 0  0.8125 0.21875 0  0.84375 0.21875 0  0.875 0.21875 0  0.90625 0.21875 0  0.9375 0.21875 0  0.96875 0.21875 0  1 0.21875 0  0 0.25 0  0.03125 0.25 0  0.0625 0.25 0  0.09375 0.25 0  0.125 0.25 0  0.15625 0.25 0  0.1875 0.25 0  0.21875 0.25 0  0.25 0.25 0  0.28125 0.25 0  0.3125 0.25 0  0.34375 0.25 0  0.375 0.25 0  0.40625 0.25 0  0.4375 0.25 0  0.46875 0.25 0  0.5 0.25 0  0.53125 0.25 0  0.5625 0.25 0  0.59375 0.25 0  0.625 0.25 0  0.65625 0.25 0  0.6875 0.25 0  0.71875 0.25 0  0.75 0.25 0  0.78125 0.25 0  0.8125 0.25 0  0.84375 0.25 0  0.875 0.25 0  0.90625 0.25 0  0.9375 0.25 0  0.96875 0.25 0  1 0.25 0  0 0.28125 0  0.03125 0.28125 0  0.0625 0.28125 0  0.09375 0.28125 0  0.125 0.28125 0  0.15625 0.28125 0  0.1875 0.28125 0  0.21875 0.28125 0  0.25 0.28125 0  0.28125 0.28125 0  0.3125 0.28125 0  0.34375 0.28125 0  0.375 0.28125 0  0.40625 0.28125 0  0.4375 0.28125 0  0.46875 0.28125 0  0.5 0.28125 0  0.53125 0.28125 0  0.5625 0.28125 0  0.59375 0.28125 0  0.625 0.28125 0  0.65625 0.28125 0  0.6875 0.28125 0  0.71875 0.28125 0  0.75 0.28125 0  0.78125 0.28125 0  0.8125 0.28125 0  0.84375 0.28125 0  0.875 0.28125 0  0.90625 0.28125 0  0.9375 0.28125 0  0.96875 0.28125 0  1 0.28125 0  0 0.3125 0  0.03125 0.3125 0  0.0625 0.3125 0  0.09375 0.3125 0  0.125 0.3125 0  0.15625 0.3125 0  0.1875 0.3125 0  0.21875 0.3125 0  0.25 0.3125 0  0.28125 0.3125 0  0.3125 0.3125 0  0.34375 0.3125 0  0.375 0.3125 0  0.40625 0.3125 0  0.4375 0.3125 0  0.46875 0.3125 0  0.5 0.3125 0  0.53125 0.3125 0  0.5625 0.3125 0  0.59375 0.3125 0  0.625 0.3125 0  0.65625 0.3125 0  0.6875 0.3125 0  0.71875 0.3125 0  0.75 0.3125 0  0.78125 0.3125 0  0.8125 0.3125 0  0.84375 0.3125 0  0.875 0.3125 0  0.90625 0.3125 0  0.9375 0.3125 0  0.96875 0.3125 0  1 0.3125 0  0 0.34375 0  0.03125 0.34375 0  0.0625 0.34375 0  0.09375 0.34375 0  0.125 0.34375 0  0.15625 0.34375 0  0.1875 0.34375 0  0.21875 0.34375 0  0.25 0.34375 0  0.28125 0.34375 0  0.3125 0.34375 0  0.34375 0.34375 0  0.375 0.34375 0  0.40625 0.34375 0  0.4375 0.34375 0  0.46875 0.34375 0  0.5 0.34375 0  0.53125 0.34375 0  0.5625 0.34375 0  0.59375 0.34375 0  0.625 0.34375 0  0.65625 0.34375 0  0.6875 0.34375 0  0.71875 0.34375 0  0.75 0.34375 0  0.78125 0.34375 0  0.8125 0.34375 0  0.84375 0.34375 0  0.875 0.34375 0  0.90625 0.34375 0  0.9375 0.34375 0  0.96875 0.34375 0  1 0.34375 0  0 0.375 0  0.03125 0.375 0  0.0625 0.375 0  0.09375 0.375 0  0.125 0.375 0  0.15625 0.375 0  0.1875 0.375 0  0.21875 0.375 0  0.25 0.375 0  0.28125 0.375 0  0.3125 0.375 0  0.34375 0.375 0  0.375 0.375 0  0.40625 0.375 0  0.4375 0.375 0  0.46875 0.375 0  0.5 0.375 0  0.53125 0.375 0  0.5625 0.375 0  0.59375 0.375 0  0.625 0.375 0  0.65625 0.375 0  0.6875 0.375 0  0.71875 0.375 0  0.75 0.375 0  0.78125 0.375 0  0.8125 0.375 0  0.84375 0.375 0  0.875 0.375 0  0.90625 0.375 0  0.9375 0.375 0  0.96875 0.375 0  1 0.375 0  0 0.40625 0  0.03125 0.40625 0  0.0625 0.40625 0  0.09375 0.40625 0  0.125 0.40625 0  0.15625 0.40625 0  0.1875 0.40625 0  0.21875 0.40625 0  0.25 0.40625 0  0.28125 0.40625 0  0.3125 0.40625 0  0.34375 0.40625 0  0.375 0.40625 0  0.40625 0.40625 0  0.4375 0.40625 0  0.46875 0.40625 0  0.5 0.40625 0  0.53125 0.40625 0  0.5625 0.40625 0  0.59375 0.40625 0  0.625 0.40625 0  0.65625 0.40625 0  0.6875 0.40625 0  0.71875 0.40625 0  0.75 0.40625 0  0.78125 0.40625 0  0.8125 0.40625 0  0.84375 0.40625 0  0.875 0.40625 0  0.90625 0.40625 0  0.9375 0.40625 0  0.96875 0.40625 0  1 0.40625 0  0 0.4375 0  0.03125 0.4375 0  0.0625 0.4375 0  0.09375 0.4375 0  0.125 0.4375 0  0.15625 0.4375 0  0.1875 0.4375 0  0.21875 0.4375 0  0.25 0.4375 0  0.28125 0.4375 0  0.3125 0.4375 0  0.34375 0.4375 0  0.375 0.4375 0  0.40625 0.4375 0  0.4375 0.4375 0  0.46875 0.4375 0  0.5 0.4375 0  0.53125 0.4375 0  0.5625 0.4375 0  0.59375 0.4375 0  0.625 0.4375 0  0.65625 0.4375 0  0.6875 0.4375 0  0.71875 0.4375 0  0.75 0.4375 0  0.78125 0.4375 0  0.8125 0.4375 0  0.84375 0.4375 0  0.875 0.4375 0  0.90625 0.4375 0  0.9375 0.4375 0  0.96875 0.4375 0  1 0.4375 0  0 0.46875 0  0.03125 0.46875 0  0.0625 0.46875 0  0.09375 0.46875 0  0.125 0.46875 0  0.15625 0.46875 0  0.1875 0.46875 0  0.21875 0.46875 0  0.25 0.46875 0  0.28125 0.46875 0  0.3125 0.46875 0  0.34375 0.46875 0  0.375 0.46875 0  0.40625 0.46875 0  0.4375 0.46875 0  0.46875 0.46875 0  0.5 0.46875 0  0.53125 0.46875 0  0.5625 0.46875 0  0.59375 0.46875 0  0.625 0.46875 0  0.65625 0.46875 0  0.6875 0.46875 0  0.71875 0.46875 0  0.75 0.46875 0  0.78125 0.46875 0  0.8125 0.46875 0  0.84375 0.46875 0  0.875 0.46875 0  0.90625 0.46875 0  0.9375 0.46875 0  0.96875 0.46875 0  1 0.46875 0  0 0.5 0  0.03125 0.5 0  0.0625 0.5 0  0.09375 0.5 0  0.125 0.5 0  0.15625 0.5 0  0.1875 0.5 0  0.21875 0.5 0  0.25 0.5 0  0.28125 0.5 0  0.3125 0.5 0  0.34375 0.5 0  0.375 0.5 0  0.40625 0.5 0  0.4375 0.5 0  0.46875 0.5 0  0.5 0.5 0  0.53125 0.5 0  0.5625 0.5 0  0.59375 0.5 0  0.625 0.5 0  0.65625 0.5 0  0.6875 0.5 0  0.71875 0.5 0  0.75 0.5 0  0.78125 0.5 0  0.8125 0.5 0  0.84375 0.5 0  0.875 0.5 0  0.90625 0.5 0  0.9375 0.5 0  0.96875 0.5 0  1 0.5 0  0 0.53125 0  0.03125 0.53125 0  0.0625 0.53125 0  0.09375 0.53125 0  0.125 0.53125 0  0.15625 0.53125 0  0.1875 0.53125 0  0.21875 0.53125 0  0.25 0.53125 0  0.28125 0.53125 0  0.3125 0.53125 0  0.34375 0.53125 0  0.375 0.53125 0  0.40625 0.53125 0  0.4375 0.53125 0  0.46875 0.53125 0  0.5 0.53125 0  0.53125 0.53125 0  0.5625 0.53125 0  0.59375 0.53125 0  0.625 0.53125 0  0.65625 0.53125 0  0.6875 0.53125 0  0.71875 0.53125 0  0.75 0.53125 0  0.78125 0.531
[...]
<PointData  Scalars="u_sol"> 
<DataArray  type="Float64"  Name="u_sol"  format="ascii">-7.2464720884631600e-05  -4.2635786712111316e-05  5.5162121020270103e-04  1.1136168486792339e-03  1.3847605981670279e-03  1.6546664683996675e-03  2.2847881037016226e-03  3.4047207889518626e-03  5.0430670014419837e-03  7.0083673265142841e-03  9.1446549812864569e-03  1.0958670670019384e-02  1.0975648345445097e-02  7.9304342926911110e-03  1.8973281913840555e-03  -5.7302368646349163e-03  -1.3055295672511843e-02  -1.7953187021677565e-02  -1.8004548177188391e-02  -1.2346878078942367e-02  -2.3558283271882295e-03  9.1312876227488977e-03  1.8352010833535201e-02  2.2182148154203003e-02  1.9366233821419609e-02  1.3110170833681717e-02  7.5288459518893262e-03  3.5487427022054224e-03  1.2700673232450615e-03  2.8752976107135434e-04  -1.2715507029749612e-04  -2.4488896134164460e-04  -2.9073763137326817e-05  -4.0366366226744224e-04  2.1273985941658640e-03  7.2487255560799713e-03  1.1465830481145254e-02  1.3074018112026633e-02  1.2570131395953889e-02  1.0550927563807395e-02  6.0298823390713832e-03  -3.6929104284435460e-03  -2.1642519060835325e-02  -4.9151415558071711e-02  -8.4364216954135179e-02  -1.2257926906085134e-01  -1.5829094314735850e-01  -1.8678567362589285e-01  -2.0472673737565211e-01  -2.0999279018992892e-01  -2.0182197384267386e-01  -1.8112040246704858e-01  -1.4947877695060466e-01  -1.0924440592214109e-01  -6.4263363840416796e-02  -1.9700532975933889e-02  1.8415693612933368e-02  4.4936514350382629e-02  5.6011704519167524e-02  5.2711593504759700e-02  4.1393056903188868e-02  2.7961975867800498e-02  1.6153337741972973e-02  7.4167472581582183e-03  1.7887910056654699e-03  -3.3989626852660949e-04  -6.0945360495116472e-04  3.3610672781099280e-03  9.9180699386249224e-03  1.3444859224518161e-02  1.2207421278676510e-02  6.2155601814956763e-03  -6.2777011566556504e-03  -2.9777956201888871e-02  -6.7028228434476089e-02  -1.1532687483042220e-01  -1.6819350269613373e-01  -2.1887151964384691e-01  -2.6234795652570625e-01  -2.9581608393281578e-01  -3.1835857983237614e-01  -3.3019439943917078e-01  -3.3196647340727764e-01  -3.2393988723340428e-01  -3.0572707598330923e-01  -2.7707993476527593e-01  -2.3822453965846463e-01  -1.9032732866505667e-01  -1.3639219469915614e-01  -8.1564024294616691e-02  -3.2688073618994284e-02  4.4471272969977610e-03  2.6482234333825058e-02  3.3660985103354989e-02  3.0153696521302092e-02  2.1272845863025178e-02  1.1462010181380882e-02  3.2883293981169404e-03  -5.5115135236741969e-04  -6.6652751637076254e-04  3.9451867423691400e-03  9.3214229945388499e-03  8.0250351090836239e-03  -1.0115145455666661e-03  -1.9775268097918641e-02  -5.3352974890771523e-02  -1.0284682352903349e-01  -1.6224784819513360e-01  -2.2292282280203929e-01  -2.7781687872268057e-01  -3.2320164946291285e-01  -3.5833402339682208e-01  -3.8407832630641481e-01  -4.0163592318110414e-01  -4.1186230883393377e-01  -4.1507592594799936e-01  -4.1129799079822399e-01  -4.0026527610093432e-01  -3.8098852559607865e-01  -3.5188390488056426e-01  -3.1134571383927889e-01  -2.5880086613468645e-01  -1.9634333188787007e-01  -1.3001226932158752e-01  -6.9559554516271507e-02  -2.4381650359405826e-02  2.2723012508058366e-03  1.3805632415776689e-02  1.4809463377948627e-02  9.7067133054389940e-03  3.0451640348266237e-03  -5.3534586541753679e-04  -4.9615960973481660e-04  3.5603319515285421e-03  4.2283448547442868e-03  -6.0514462937072385e-03  -2.8315111734100507e-02  -6.6588298869789536e-02  -1.2147989616900247e-01  -1.8553530335117824e-01  -2.4873106237444070e-01  -3.0374154252930063e-01  -3.4750725690938583e-01  -3.8023795568210356e-01  -4.0359014430228585e-01  -4.1940424840792712e-01  -4.2928106880087208e-01  -4.3458386985464320e-01  -4.3645203154687134e-01  -4.3563866133796264e-01  -4.3218075221646329e-01  -4.2512498806569904e-01  -4.1228252121267839e-01  -3.9013763281340713e-01  -3.5443135546876026e-01  -3.0192249732099602e-01  -2.3325881742380314e-01  -1.5570125705350471e-01  -8.3458236177963080e-02  -3.2014050871573829e-02  -5.6596689878709600e-03  4.1625125603580579e-03  5.0898996388311123e-03  1.7767734089665396e-03  -3.3645279422274518e-04  1.0034824994605551e-04  1.1935854536854751e-03  -6.9264099987027296e-03  -2.9729839021465154e-02  -6.8329611863346393e-02  -1.2344049181307118e-01  -1.8791682712029831e-01  -2.5087240139011130e-01  -3.0417322805457064e-01  -3.4456478884888059e-01  -3.7249886729640636e-01  -3.9013455522848595e-01  -4.0006523786944503e-01  -4.0481955185170476e-01  -4.0659874784836586e-01  -4.0706203121432022e-01  -4.0725516352084939e-01  -4.0772290016753288e-01  -4.0872334779746777e-01  -4.1015170130267087e-01  -4.1097600613624902e-01  -4.0839385738427025e-01  -3.9717943632521197e-01  -3.7019938271248753e-01  -3.2106350675126155e-01  -2.4874230201458461e-01  -1.6208528343166698e-01  -8.0547484844568168e-02  -2.6618567775722964e-02  -4.3620446897689596e-03  1.1584848906339153e-03  9.0916468742718133e-04  -1.8412724650294514e-04  1.1183280988742257e-03  -3.8501905379007099e-03  -2.3776208685337533e-02  -5.9890478672585276e-02  -1.1171268283215970e-01  -1.7379777440670613e-01  -2.3528389592055537e-01  -2.8685574251852236e-01  -3.2433491155268906e-01  -3.4798485057877371e-01  -3.6045034678002141e-01  -3.6523359784533860e-01  -3.6576697731023489e-01  -3.6468653541241508e-01  -3.6347563768366165e-01  -3.6267396414624564e-01  -3.6239293268063522e-01  -3.6270121679921230e-01  -3.6385564231413414e-01  -3.6643258267521739e-01  -3.7106051807733570e-01  -3.7759269546110080e-01  -3.8357008335560183e-01  -3.8257404737204803e-01  -3.6444184314214562e-01  -3.1919262569964291e-01  -2.4416527921284589e-01  -1.5071680682685495e-01  -6.4696901972661869e-02  -1.4929298367829266e-02  -3.1358525204471351e-04  8.9307459621721145e-04  -1.3732321607352741e-04  2.0403023386475318e-03  -1.0908874199137364e-02  -4.2914093665307539e-02  -8.9535751966924690e-02  -1.4726258244904419e-01  -2.0662739681717099e-01  -2.5737629789366245e-01  -2.9377875030158923e-01  -3.1535418626932310e-01  -3.2500777771955286e-01  -3.2712080228746182e-01  -3.2600610598438362e-01  -3.2463409413330696e-01  -3.2418029596283154e-01  -3.2457139432442389e-01  -3.2531372124994173e-01  -3.2598365704324517e-01  -3.2638944627213756e-01  -3.2660226803710446e-01  -3.2700232906003068e-01  -3.2846254000689007e-01  -3.3243230765536574e-01  -3.4022021343111097e-01  -3.5061219063269616e-01  -3.5653224645728088e-01  -3.4453016855035185e-01  -3.0070795216847596e-01  -2.2163994144067928e-01  -1.2328433828642772e-01  -4.0301620925602397e-02  -3.0912913106817424e-03  1.1510551197654972e-03  -5.3373111859439604e-05  2.7294705327817934e-03  -1.8210401799290826e-02  -5.9836165039178199e-02  -1.1173957346661180e-01  -1.6820233048354816e-01  -2.1888013704653281e-01  -2.5633261512038774e-01  -2.7851101463803951e-01  -2.8793696687016296e-01  -2.8951898203643106e-01  -2.8836199757601427e-01  -2.8783758475700844e-01  -2.8891743004116605e-01  -2.9106185497561748e-01  -2.9344529501836430e-01  -2.9553330009419781e-01  -2.9710774399118983e-01  -2.9814654730402540e-01  -2.9866264186120672e-01  -2.9860963748889069e-01  -2.9804052939494791e-01  -2.9756395251187800e-01  -2.9900270678370183e-01  -3.0520203394281614e-01  -3.1677092356947817e-01  -3.2613709147974429e-01  -3.1602514939311294e-01  -2.6885040361144280e-01  -1.8311184626760663e-01  -8.3146877813167847e-02  -1.5427875316477463e-02  2.1560708262775463e-03  -3.4461130172541065e-04  3.1486722846302906e-03  -2.3799293445671933e-02  -7.0883408794245581e-02  -1.2278475420924519e-01  -1.7322418130945197e-01  -2.1312241754856850e-01  -2.3834271897017903e-01  -2.4994897649202588e-01  -2.5265486149497007e-01  -2.5213628292159646e-01  -2.5239242036313153e-01  -2.5451520239521463e-01  -2.5768041027353733e-01  -2.6083759939032874e-01  -2.6348839892444498e-01  -2.6560701277233645e-01  -2.6735050353737644e-01  -2.6886176199542794e-01  -2.7019521862029655e-01  -2.7126221696599478e-01  -2.7175968501665609e-01  -2.7123667480351693e-01  -2.6968000394298053e-01  -2.6887748268529682e-01  -2.7309043422774704e-01  -2.8470725289470011e-01  -2.9474958792180500e-01  -2.8112204502931704e-01  -2.2441840409939265e-01  -1.3044633815438128e-01  -3.8509938792043626e-02  7.7215165181654258e-04  -2.3072031631221537e-04  3.3359767869613455e-03  -2.6367112452212703e-02  -7.4467794717633332e-02  -1.2243190023938566e-01  -1.6471132921606346e-01  -1.9441054176754227e-01  -2.1032520913139238e-01  -2.1578803608431857e-01  -2.1648635325057269e-01  -2.1722713568327018e-01  -2.1978218332071511e-01  -2.2339315594058598e-01  -2.2682438837645053e-01  -2.2955700565775433e-01  -2.3169689257332343e-01  -2.3351974469593548e-01  -2.3522674435793828e-01  -2.3691789977052849e-01  -2.3864462451201332e-01  -2.4044224197194150e-01  -2.4223656463668525e-01  -2.4362178831427894e-01  -2.4371433847761659e-01  -2.4181374225425606e-01  -2.3963403195721697e-01  -2.4293338066960657e-01  -2.5493387521340799e-01  -2.6262924190026876e-01  -2.3832288584848887e-01  -1.6647008209716019e-01  -6.8257683946284411e-02  -7.1609257113228707e-03  1.5989234889617217e-03  3.3542634218822129e-03  -2.5564489824998902e-02  -7.0932025337343177e-02  -1.1267527467237329e-01  -1.4655211087844439e-01  -1.6796836027559509e-01  -1.7789046082571916e-01  -1.8083894218273355e-01  -1.8211923143588285e-01  -1.8468931452002096e-01  -1.8844760849764225e-01  -1.9210162389431967e-01  -1.9497930294083557e-01  -1.9722195382533336e-01  -1.9919076329628910e-01  -2.0109140757186264e-01  -2.0297202330788058e-01  -2.0483301502258727e-01  -2.0668834824414856e-01  -2.0858775710169433e-01  -2.1062124837617019e-01  -2.1282514503530903e-01  -2.1481886801146871e-01  -2.1535145761537566e-01  -2.1311732574740108e-01  -2.1027563408868191e-01  -2.1445239950485903e-01  -2.2708645782474923e-01  -2.2681105120265976e-01  -1.8339244617182460e-01  -9.5033075212663118e-02  -1.6651369365210722e-02  4.9206890269461907e-03  3.2460060904817567e-03  -2.1830360365983879e-02  -6.1756740459651932e-02  -9.6320261386087208e-02  -1.2257389557276190e-01  -1.3791803512460890e-01  -1.4455277458290228e-01  -1.4709803276353969e-01  -1.4958487905072199e-01  -1.5322069255470527e-01  -1.5708230277094068e-01  -1.6025162909950230e-01  -1.6271886866798799e-01  -1.6489578385137835e-01  -1.6704302061778203e-01  -1.6919708992508381e-01  -1.7132553997038341e-01  -1.7341446364266230e-01  -1.7546732126483650e-01  -1.7748733765786565e-01  -1.7950059168763102e-01  -1.8161599820838475e-01  -1.8397952728532829e-01  -1.8623060749437617e-01  -1.8667721876279583e-01  -1.8368341689013834e-01  -1.8117636889854724e-01  -1.8837164807543125e-01  -1.9893804174940966e-01  -1.8082628542799528e-01  -1.1160224170021874e-01  -2.4764234866975269e-02  8.0911458703722943e-03  3.0110068894907902e-03  -1.6022265748307011e-02  -4.8737779374890773e-02  -7.6013334300018290e-02  -9.5755502907168846e-02  -1.0689194674402094e-01  -1.1195555511894377e-01  -1.1485594754194919e-01  -1.1816869641341872e-01  -1.2202790077849200e-01  -1.2551611242655175e-01  -1.2827698126724560e-01  -1.3062984094701272e-01  -1.3291971309311171e-01  -1.3523358840285840e-01  -1.3754024500880599e-01  -1.3983171583404436e-01  -1.4212722942602543e-01  -1.4443792808214845e-01  -1.4675041523651317e-01  -1.4902821143171235e-01  -1.5124737064706750e-01  -1.5350678993365285e-01  -1.5602845361670234e-01  -1.5829850641012061e-01  -1.5796170294706149e-01  -1.5397549731135837e-01  -1.5411842356283956e-01  -1.6488976314285955e-01  -1.6389326735872645e-01  -1.1627115548458147e-01  -3.1577660262428274e-02  9.4248782248062546e-03  2.6336151250375994e-03  -9.0427089371042674e-03  -3.3507332670698053e-02  -5.3779897247665770e-02  -6.8025290396373450e-02  -7.6240764456212445e-02  -8.0553355788275174e-02  -8.3792257632187242e-02  -8.7342656645895411e-02  -9.0932711237954628e-02  -9.3974759596311533e-02  -9.6486066231061027e-02  -9.8810937764327880e-02  -1.0114208220378196e-01  -1.0348666878488980e-01  -1.0583825409910393e-01  -1.0823102017334890e-01  -1.1070257468909245e-01  -1.1326777083409982e-01  -1.1591475275477160e-01  -1.1860188734383428e-01  -1.2125828171196830e-01  -1.2381861759935744e-01  -1.2638699369485373e-01  -1.2919679808360940e-01  -1.3116131302943185e-01  -1.2921746994946637e-01  -1.2560819708172821e-01  -1.3180411503396716e-01  -1.3945885691757862e-01  -1.1127638413437091e-01  -3.6300328212333394e-02  9.0388487781966394e-03  2.0545164811931345e-03  -1.7910403701872743e-03  -1.7293483388519680e-02  -3.0942711463556642e-02  -4.0438635891362561e-02  -4.6436450077097929e-02  -5.0255342566781956e-02  -5.3544171125905177e-02  -5.6885967686252426e-02  -5.9990936292504987e-02  -6.2616858732598868e-02  -6.4920211479360987e-02  -6.7148785281935325e-02  -6.9397480687093616e-02  -7.1679931727386723e-02  -7.4031711354530808e-02  -7.6506174177311995e-02  -7.9142295806779089e-02  -8.1957519261313824e-02  -8.4946364223523099e-02  -8.8071938212469378e-02  -9.1265466491617681e-02  -9.4436318133504352e-02  -9.7499211615553860e-02  -1.0060635126209104e-01  -1.0378006801416204e-01  -1.0468528065673890e-01  -1.0114145323943673e-01  -1.0274881067863090e-01  -1.1306842089385577e-01  -1.0018804693732458e-01  -3.8275663365232353e-02  7.8086689512735594e-03  9.1138822194316920e-04  4.9493619456703192e-03  -7.3021821015786228e-04  -8.3431294869787970e-03  -1.3381423148624781e-02  -1.7510969488503985e-02  -2.0793475705225616e-02  -2.3856309975089428e-02  -2.6725089084684933e-02  -2.9260991264909931e-02  -3.1462383905594568e-02  -3.3504732943744210e-02  -3.5530825595161915e-02  -3.7602117275464565e-02  -3.9766144126823048e-02  -4.2086607099752010e-02  -4.4621624270045873e-02  -4.7410780901605686e-02  -5.0476225120814774e-02  -5.3821692348880755e-02  -5.7422003204732570e-02  -6.1209742307465557e-02  -6.5096868581359810e-02  -6.8986124329136464e-02  -7.2789987035669912e-02  -7.6718720338200277e-02  -7.9933247639799143e-02  -7.8764880032968776e-02  -7.7981760520962840e-02  -8.8027020842697881e-02  -8.6125381959517980e-02  -3.7627584102318853e-02  6.3817038886715347e-03  -3.3391543057735866e-04  1.0977351007909789e-02  1.5410074392033034e-02  1.3788082942031049e-02  1.2978396061092157e-02  1.0789965901581900e-02  8.1044989484432700e-03  5.4375932379651945e-03  3.1610102500813191e-03  1.2641658452586559e-03  -4.5650708495510858e-04  -2.1507904800893715e-03  -3.8788715083894667e-03  -5.6954617814321262e-03  -7.6840665217082554e-03  -9.9271153906683555e-03  -1.2487338058202476e-02  -1.5410010635567276e-02  -1.8725390215429624e-02  -2.2445631223334990e-02  -2.6557644998594348e-02  -3.1010353189760965e-02  -3.5712329125976279e-02  -4.0578700565999180e-02  -4.5484938402907044e-02  -5.0368902201328919e-02  -5.5286185008060082e-02  -5.7283607089266136e-02  -5.6594000432651725e-02  -6.5722750713570630e-02  -7.1300485958122134e-02  -3.5037035878768108e-02  5.0730725041471620e-03  -1.5471489725431111e-03  1.5954835960898656e-02  3.0619046209822816e-02  3.5298224604293896e-02  3.8589879771691628e-02  3.8670392727565228e-02  3.6715617449910108e-02  3.4491739815456710e-02  3.2814271623515863e-02  3.1609446381237735e-02  3.0469494771808540e-02  2.9224228338129224e-02  2.7878164163440747e-02  2.6390991591524693e-02  2.4649969865297845e-02  2.2548324300218910e-02  2.0012314264649462e-02  1.6986018572692947e-02  1.3427472821227951e-02  9.3156394217274539e-03  4.6550928049157274e-03  -5.2117880210155365e-04  -6.1480574568935544e-03  -1.2124993765035926e-02  -1.8369368706156654e-02  -2.4638095567286616e-02  -3.1064777982151199e-02  -3.6197010078338476e-02  -3.7530796231963079e-02  -4.6390782582874768e-02  -5.7088676151678057e-02  -3.1354547018571849e-02  3.9789307215199543e-03  -2.7106629638441529e-03  1.9463627450988757e-02  4.4310453771757193e-02  5.5958311536108134e-02  6.3401929003635879e-02  6.6179033070189505e-02  6.5261587936317866e-02  6.3466866537941993e-02  6.2308386055545610e-02  6.1796018020715320e-02  6.1356437163976631e-02  6.0694772935931833e-02  5.9825540214902842e-02  5.8742883554925601e-02  5.7329413892236766e-02  5.5449192521312737e-02  5.3001461352174241e-02  4.9914347190791138e-02  4.6134658423262136e-02  4.1629397531065225e-02  3.6390685867005418e-02  3.0433459285606996e-02  2.3791947001572479e-02  1.6550033623729754e-02  8.8136571585715508e-03  7.9294423295651342e-04  -7.3202493115572314e-03  -1.5347278520688915e-02  -1.9964692740184749e-02  -2.9744307907229081e-02  -4.4273846830515967e-02  -2.7398183566823012e-02  3.0905116959407675e-03  -3.7273790312669450e-03  2.1196448803799131e-02  5.5650031907416048e-02  7.5254674654509912e-02  8.7212528004756221e-02  9.3165602406999684e-02  9.3833521397449660e-02  9.2526090670389291e-02  9.1735732580895651e-02  9.1844259220934546e-02  9.2205106766563530e-02  9.2306720620784960e-02  9.2058962048948464e-02  9.1476874191899579e-02  9.0473001040079687e-02  8.8897517794366887e-02  8.6616598461515260e-02  8.3531323867052226e-02  7.9570797532736617e-02  7.4689112131349905e-02  6.8860807363322882e-02  6.2071622693212619e-02  5.4329192456022787e-02  4.5687880248026669e-02  3.6309855703212345e-02  2.6312931566259169e-02  1.6140565398821353e-02  5.3630064318666926e-03  -3.3177571858738438e-03  -1.5354726261489950e-02  -3.3287389089761997e-02  -2.3931299760767986e-02  2.3462828542848689e-03  -4.4155325630285827e-03  2.1037738969276638e-02  6.3541877369163766e-02  9.2185666743392250e-02  1.0951300600740824e-01  1.1919277741982814e-01  1.2224810086571652e-01  1.2178531593905660e-01  1.2124113338438604e-01  1.2180389444148176e-01  1.2298296405033270e-01  1.2403987730662953e-01  1.2464202391480531e-01  1.2473170489680706e-01  1.2425150535036321e-01  1.2307124975153863e-01  1.2104030826879454e-01  1.1803141580058794e-01  1.1394939189278125e-01  1.0872501433533172e-01  1.0230401120338539e-01  9.4638874224447653e-02  8.5711160268279463e-02  7.5583043852779391e-02  6.4405502765432332e-02  5.2345607028101669e-02  3.9691647795313562e-02  2.6094068976224061e-02  1.2824130008679269e-02  -2.7845197778838108e-03  -2.4400872250898605e-02  -2.1711898043235357e-02  1.6450233383636628e-03  -4.5389910328061910e-03  1.9103990149187712e-02  6.6753691798873749e-02  1.0513009828560052e-01  1.2924909819443062e-01  1.4345993672242718e-01  1.4988466234267403e-01  1.5112479085254107e-01  1.5101208238428185e-01  1.5183772371420107e-01  1.5370544857091381e-01  1.5581777666727492e-01  1.5753268056065783e-01  1.5857331543767544e-01  1.5882877459796038e-01  1.5818862485013210e-01  1.5651335380428166e-01  1.5366383217252280e-01  1.4952060608739107e-01  1.4398350113634106e-01  1.3696289149728669e-01  1.2838358637527311e-01  1.1822628125267713e-01  1.0656358009100457e-01  9.3524209000565170e-02  7.9266093684265682e-02  6.3932804579790420e-02  4.7048589767344794e-02  2.8791942749463808e-02  8.4723017248244849e-03  -1.7891598296951396e-02  -2.1450428504534980e-02  7.5839494514892615e-04  -3.9636027614879067e-03  1.5738070010162305e-02  6.4286383692824925e-02  1.1191759591335981e-01  1.4458848772826594e-01  1.6464465034114323e-01  1.7556064090546178e-01  1.7986770020834084e-01  1.8106179854751847e-01  1.8226932041974894e-01  1.8461847412663254e-01  1.8767914811847378e-01  1.9063564598475663e-01  1.9290946271550288e-01  1.9420098811641107e-01  1.9434163636647597e-01  1.9319247500700260e-01  1.9061462407839147e-01  1.8647686602449931e-01  1.8065732785613733e-01  1.7304479338054565e-01  1.6356673507830624e-01  1.5222162741087969e-01  1.3906160540029580e-01  1.2416521149916752e-01  1.0762073590824540e-01  8.9426808297028329e-02  6.8581089883200830e-02  4.4829090546024755e-02  1.8815571131648709e-02  -1.3690334647325813e-02  -2.3836836904061787e-02  -5.3372080034356790e-04  -2.8190598822928799e-03  1.1379890827216918e-02  5.6003215611370755e-02  1.1039748105883393e-01  1.5279896799549178e-01  1.8062828073785567e-01  1.9745576887146421e-01  2.0649206998019037e-01  2.1071737120032732e-01  2.1330291478581359e-01  2.1630567595150210e-01  2.2012716435142757e-01  2.2419094991940355e-01  2.2775804284178411e-01  2.3028756109273638e-01  2.3145051817281