<?xml version="1.0"?>
<VTKFile type="UnstructuredGrid"  version="0.1"  >
<UnstructuredGrid>
<Piece  NumberOfPoints="1089" NumberOfCells="1024">
<Points>
<DataArray  type="Float64"  NumberOfComponents="3"  format="ascii">0 0 0  0.03125 0 0  0.0625 0 0  0.09375 0 0  0.125 0 0  0.15625 0 0  0.1875 0 0  0.21875 0 0  0.25 0 0  0.28125 0 0  0.3125 0 0  0.34375 0 0  0.375 0 0  0.40625 0 0  0.4375 0 0  0.46875 0 0  0.5 0 0  0.53125 0 0  0.5625 0 0  0.59375 0 0  0.625 0 0  0.65625 0 0  0.6875 0 0  0.71875 0 0  0.75 0 0  0.78125 0 0  0.8125 0 0  0.84375 0 0  0.875 0 0  0.90625 0 0  0.9375 0 0  0.96875 0 0  1 0 0  0 0.03125 0  0.03125 0.03125 0  0.0625 0.03125 0  0.09375 0.03125 0  0.125 0.03125 0  0.15625 0.03125 0  0.1875 0.03125 0  0.21875 0.03125 0  0.25 0.03125 0  0.28125 0.03125 0  0.3125 0.03125 0  0.34375 0.03125 0  0.375 0.03125 0  0.40625 0.03125 0  0.4375 0.03125 0  0.46875 0.03125 0  0.5 0.03125 0  0.53125 0.03125 0  0.5625 0.03125 0  0.59375 0.03125 0  0.625 0.03125 0  0.65625 0.03125 0  0.6875 0.03125 0  0.71875 0.03125 0  0.75 0.03125 0  0.78125 0.03125 0  0.8125 0.03125 0  0.84375 0.03125 0  0.875 0.03125 0  0.90625 0.03125 0  0.9375 0.03125 0  0.96875 0.03125 0  1 0.03125 0  0 0.0625 0  0.03125 0.0625 0  0.0625 0.0625 0  0.09375 0.0625 0  0.125 0.0625 0  0.15625 0.0625 0  0.1875 0.0625 0  0.21875 0.0625 0  0.25 0.0625 0  0.28125 0.0625 0  0.3125 0.0625 0  0.34375 0.0625 0  0.375 0.0625 0  0.40625 0.0625 0  0.4375 0.0625 0  0.46875 0.0625 0  0.5 0.0625 0  0.53125 0.0625 0  0.5625 0.0625 0  0.59375 0.0625 0  0.625 0.0625 0  0.65625 0.0625 0  0.6875 0.0625 0  0.71875 0.0625 0  0.75 0.0625 0  0.78125 0.0625 0  0.8125 0.0625 0  0.84375 0.0625 0  0.875 0.0625 0  0.90625 0.0625 0  0.9375 0.0625 0  0.96875 0.0625 0  1 0.0625 0  0 0.09375 0  0.03125 0.09375 0  0.0625 0.09375 0  0.09375 0.09375 0  0.125 0.09375 0  0.15625 0.09375 0  0.1875 0.09375 0  0.21875 0.09375 0  0.25 0.09375 0  0.28125 0.09375 0  0.3125 0.09375 0  0.34375 0.09375 0  0.375 0.09375 0  0.40625 0.09375 0  0.4375 0.09375 0  0.46875 0.09375 0  0.5 0.09375 0  0.53125 0.09375 0  0.5625 0.09375 0  0.59375 0.09375 0  0.625 0.09375 0  0.65625 0.09375 0  0.6875 0.09375 0  0.71875 0.09375 0  0.75 0.09375 0  0.78125 0.09375 0  0.8125 0.09375 0  0.84375 0.09375 0  0.875 0.09375 0  0.90625 0.09375 0  0.9375 0.09375 0  0.96875 0.09375 0  1 0.09375 0  0 0.125 0  0.03125 0.125 0  0.0625 0.125 0  0.09375 0.125 0  0.125 0.125 0  0.15625 0.125 0  0.1875 0.125 0  0.21875 0.125 0  0.25 0.125 0  0.28125 0.125 0  0.3125 0.125 0  0.34375 0.125 0  0.375 0.125 0  0.40625 0.125 0  0.4375 0.125 0  0.46875 0.125 0  0.5 0.125 0  0.53125 0.125 0  0.5625 0.125 0  0.59375 0.125 0  0.625 0.125 0  0.65625 0.125 0  0.6875 0.125 0  0.71875 0.125 0  0.75 0.125 0  0.78125 0.125 0  0.8125 0.125 0  0.84375 0.125 0  0.875 0.125 0  0.90625 0.125 0  0.9375 0.125 0  0.96875 0.125 0  1 0.125 0  0 0.15625 0  0.03125 0.15625 0  0.0625 0.15625 0  0.09375 0.15625 0  0.125 0.15625 0  0.15625 0.15625 0  0.1875 0.15625 0  0.21875 0.15625 0  0.25 0.15625 0  0.28125 0.15625 0  0.3125 0.15625 0  0.34375 0.15625 0  0.375 0.15625 0  0.40625 0.15625 0  0.4375 0.15625 0  0.46875 0.15625 0  0.5 0.15625 0  0.53125 0.15625 0  0.5625 0.15625 0  0.59375 0.15625 0  0.625 0.15625 0  0.65625 0.15625 0  0.6875 0.15625 0  0.71875 0.15625 0  0.75 0.15625 0  0.78125 0.15625 0  0.8125 0.15625 0  0.84375 0.15625 0  0.875 0.15625 0  0.90625 0.15625 0  0.9375 0.15625 0  0.96875 0.15625 0  1 0.15625 0  0 0.1875 0  0.03125 0.1875 0  0.0625 0.1875 0  0.09375 0.1875 0  0.125 0.1875 0  0.15625 0.1875 0  0.1875 0.1875 0  0.21875 0.1875 0  0.25 0.1875 0  0.28125 0.1875 0  0.3125 0.1875 0  0.34375 0.1875 0  0.375 0.1875 0  0.40625 0.1875 0  0.4375 0.1875 0  0.46875 0.1875 0  0.5 0.1875 0  0.53125 0.1875 0  0.5625 0.1875 0  0.59375 0.1875 0  0.625 0.1875 0  0.65625 0.1875 0  0.6875 0.1875 0  0.71875 0.1875 0  0.75 0.1875 0  0.78125 0.1875 0  0.8125 0.1875 0  0.84375 0.1875 0  0.875 0.1875 0  0.90625 0.1875 0  0.9375 0.1875 0  0.96875 0.1875 0  1 0.1875 0  0 0.21875 0  0.03125 0.21875 0  0.0625 0.21875 0  0.09375 0.21875 0  0.125 0.21875 0  0.15625 0.21875 0  0.1875 0.21875 0  0.21875 0.21875 0  0.25 0.21875 0  0.28125 0.21875 0  0.3125 0.21875 0  0.34375 0.21875 0  0.375 0.21875 0  0.40625 0.21875 0  0.4375 0.21875 0  0.46875 0.21875 0  0.5 0.21875 0  0.53125 0.21875 0  0.5625 0.21875 0  0.59375 0.21875 0  0.625 0.21875 0  0.65625 0.21875 0  0.6875 0.21875 0  0.71875 0.21875 0  0.75 0.21875 0  0.78125 0.21875 0  0.8125 0.21875 0  0.84375 0.21875 0  0.875 0.21875 0  0.90625 0.21875 0  0.9375 0.21875 0  0.96875 0.21875 0  1 0.21875 0  0 0.25 0  0.03125 0.25 0  0.0625 0.25 0  0.09375 0.25 0  0.125 0.25 0  0.15625 0.25 0  0.1875 0.25 0  0.21875 0.25 0  0.25 0.25 0  0.28125 0.25 0  0.3125 0.25 0  0.34375 0.25 0  0.375 0.25 0  0.40625 0.25 0  0.4375 0.25 0  0.46875 0.25 0  0.5 0.25 0  0.53125 0.25 0  0.5625 0.25 0  0.59375 0.25 0  0.625 0.25 0  0.65625 0.25 0  0.6875 0.25 0  0.71875 0.25 0  0.75 0.25 0  0.78125 0.25 0  0.8125 0.25 0  0.84375 0.25 0  0.875 0.25 0  0.90625 0.25 0  0.9375 0.25 0  0.96875 0.25 0  1 0.25 0  0 0.28125 0  0.03125 0.28125 0  0.0625 0.28125 0  0.09375 0.28125 0  0.125 0.28125 0  0.15625 0.28125 0  0.1875 0.28125 0  0.21875 0.28125 0  0.25 0.28125 0  0.28125 0.28125 0  0.3125 0.28125 0  0.34375 0.28125 0  0.375 0.28125 0  0.40625 0.28125 0  0.4375 0.28125 0  0.46875 0.28125 0  0.5 0.28125 0  0.53125 0.28125 0  0.5625 0.28125 0  0.59375 0.28125 0  0.625 0.28125 0  0.65625 0.28125 0  0.6875 0.28125 0  0.71875 0.28125 0  0.75 0.28125 0  0.78125 0.28125 0  0.8125 0.28125 0  0.84375 0.28125 0  0.875 0.28125 0  0.90625 0.28125 0  0.9375 0.28125 0  0.96875 0.28125 0  1 0.28125 0  0 0.3125 0  0.03125 0.3125 0  0.0625 0.3125 0  0.09375 0.3125 0  0.125 0.3125 0  0.15625 0.3125 0  0.1875 0.3125 0  0.21875 0.3125 0  0.25 0.3125 0  0.28125 0.3125 0  0.3125 0.3125 0  0.34375 0.3125 0  0.375 0.3125 0  0.40625 0.3125 0  0.4375 0.3125 0  0.46875 0.3125 0  0.5 0.3125 0  0.53125 0.3125 0  0.5625 0.3125 0  0.59375 0.3125 0  0.625 0.3125 0  0.65625 0.3125 0  0.6875 0.3125 0  0.71875 0.3125 0  0.75 0.3125 0  0.78125 0.3125 0  0.8125 0.3125 0  0.84375 0.3125 0  0.875 0.3125 0  0.90625 0.3125 0  0.9375 0.3125 0  0.96875 0.3125 0  1 0.3125 0  0 0.34375 0  0.03125 0.34375 0  0.0625 0.34375 0  0.09375 0.34375 0  0.125 0.34375 0  0.15625 0.34375 0  0.1875 0.34375 0  0.21875 0.34375 0  0.25 0.34375 0  0.28125 0.34375 0  0.3125 0.34375 0  0.34375 0.34375 0  0.375 0.34375 0  0.40625 0.34375 0  0.4375 0.34375 0  0.46875 0.34375 0  0.5 0.34375 0  0.53125 0.34375 0  0.5625 0.34375 0  0.59375 0.34375 0  0.625 0.34375 0  0.65625 0.34375 0  0.6875 0.34375 0  0.71875 0.34375 0  0.75 0.34375 0  0.78125 0.34375 0  0.8125 0.34375 0  0.84375 0.34375 0  0.875 0.34375 0  0.90625 0.34375 0  0.9375 0.34375 0  0.96875 0.34375 0  1 0.34375 0  0 0.375 0  0.03125 0.375 0  0.0625 0.375 0  0.09375 0.375 0  0.125 0.375 0  0.15625 0.375 0  0.1875 0.375 0  0.21875 0.375 0  0.25 0.375 0  0.28125 0.375 0  0.3125 0.375 0  0.34375 0.375 0  0.375 0.375 0  0.40625 0.375 0  0.4375 0.375 0  0.46875 0.375 0  0.5 0.375 0  0.53125 0.375 0  0.5625 0.375 0  0.59375 0.375 0  0.625 0.375 0  0.65625 0.375 0  0.6875 0.375 0  0.71875 0.375 0  0.75 0.375 0  0.78125 0.375 0  0.8125 0.375 0  0.84375 0.375 0  0.875 0.375 0  0.90625 0.375 0  0.9375 0.375 0  0.96875 0.375 0  1 0.375 0  0 0.40625 0  0.03125 0.40625 0  0.0625 0.40625 0  0.09375 0.40625 0  0.125 0.40625 0  0.15625 0.40625 0  0.1875 0.40625 0  0.21875 0.40625 0  0.25 0.40625 0  0.28125 0.40625 0  0.3125 0.40625 0  0.34375 0.40625 0  0.375 0.40625 0  0.40625 0.40625 0  0.4375 0.40625 0  0.46875 0.40625 0  0.5 0.40625 0  0.53125 0.40625 0  0.5625 0.40625 0  0.59375 0.40625 0  0.625 0.40625 0  0.65625 0.40625 0  0.6875 0.40625 0  0.71875 0.40625 0  0.75 0.40625 0  0.78125 0.40625 0  0.8125 0.40625 0  0.84375 0.40625 0  0.875 0.40625 0  0.90625 0.40625 0  0.9375 0.40625 0  0.96875 0.40625 0  1 0.40625 0  0 0.4375 0  0.03125 0.4375 0  0.0625 0.4375 0  0.09375 0.4375 0  0.125 0.4375 0  0.15625 0.4375 0  0.1875 0.4375 0  0.21875 0.4375 0  0.25 0.4375 0  0.28125 0.4375 0  0.3125 0.4375 0  0.34375 0.4375 0  0.375 0.4375 0  0.40625 0.4375 0  0.4375 0.4375 0  0.46875 0.4375 0  0.5 0.4375 0  0.53125 0.4375 0  0.5625 0.4375 0  0.59375 0.4375 0  0.625 0.4375 0  0.65625 0.4375 0  0.6875 0.4375 0  0.71875 0.4375 0  0.75 0.4375 0  0.78125 0.4375 0  0.8125 0.4375 0  0.84375 0.4375 0  0.875 0.4375 0  0.90625 0.4375 0  0.9375 0.4375 0  0.96875 0.4375 0  1 0.4375 0  0 0.46875 0  0.03125 0.46875 0  0.0625 0.46875 0  0.09375 0.46875 0  0.125 0.46875 0  0.15625 0.46875 0  0.1875 0.46875 0  0.21875 0.46875 0  0.25 0.46875 0  0.28125 0.46875 0  0.3125 0.46875 0  0.34375 0.46875 0  0.375 0.46875 0  0.40625 0.46875 0  0.4375 0.46875 0  0.46875 0.46875 0  0.5 0.46875 0  0.53125 0.46875 0  0.5625 0.46875 0  0.59375 0.46875 0  0.625 0.46875 0  0.65625 0.46875 0  0.6875 0.46875 0  0.71875 0.46875 0  0.75 0.46875 0  0.78125 0.46875 0  0.8125 0.46875 0  0.84375 0.46875 0  0.875 0.46875 0  0.90625 0.46875 0  0.9375 0.46875 0  0.96875 0.46875 0  1 0.46875 0  0 0.5 0  0.03125 0.5 0  0.0625 0.5 0  0.09375 0.5 0  0.125 0.5 0  0.15625 0.5 0  0.1875 0.5 0  0.21875 0.5 0  0.25 0.5 0  0.28125 0.5 0  0.3125 0.5 0  0.34375 0.5 0  0.375 0.5 0  0.40625 0.5 0  0.4375 0.5 0  0.46875 0.5 0  0.5 0.5 0  0.53125 0.5 0  0.5625 0.5 0  0.59375 0.5 0  0.625 0.5 0  0.65625 0.5 0  0.6875 0.5 0  0.71875 0.5 0  0.75 0.5 0  0.78125 0.5 0  0.8125 0.5 0  0.84375 0.5 0  0.875 0.5 0  0.90625 0.5 0  0.9375 0.5 0  0.96875 0.5 0  1 0.5 0  0 0.53125 0  0.03125 0.53125 0  0.0625 0.53125 0  0.09375 0.53125 0  0.125 0.53125 0  0.15625 0.53125 0  0.1875 0.53125 0  0.21875 0.53125 0  0.25 0.53125 0  0.28125 0.53125 0  0.3125 0.53125 0  0.34375 0.53125 0  0.375 0.53125 0  0.40625 0.53125 0  0.4375 0.53125 0  0.46875 0.53125 0  0.5 0.53125 0  0.53125 0.53125 0  0.5625 0.53125 0  0.59375 0.53125 0  0.625 0.53125 0  0.65625 0.53125 0  0.6875 0.53125 0  0.71875 0.53125 0  0.75 0.53125 0  0.78125 0.531
[...]
<PointData  Scalars="v_sol"> 
<DataArray  type="Float64"  Name="v_sol"  format="ascii">6.1657528813119483e-05  3.7233376048201620e-04  4.5043718016800160e-04  2.8854518895755676e-04  8.2732828146441295e-05  -5.4874642749878864e-05  -1.5469594096821900e-04  -3.3775303461522902e-04  -8.9104731671163777e-04  -1.8588207389012186e-03  -3.0186615360368730e-03  -3.7797578503752671e-03  -3.7784770507188724e-03  -3.0663475480718870e-03  -1.9163720875082974e-03  -5.8158463143858047e-04  7.7611829147023240e-04  1.8691443612612584e-03  2.5226175107056392e-03  3.0146146542090824e-03  3.3313154138971683e-03  3.4967610754925230e-03  3.4114979988343515e-03  2.9687000714689092e-03  2.0720421284647480e-03  3.5223196285975926e-04  -9.0446171551987855e-04  -1.3580413702760840e-03  -1.3093491462475898e-03  -9.9916968522245956e-04  -6.5466663312758468e-04  -3.5615664638277618e-04  -3.9367231904669788e-05  9.2077344649479372e-05  -2.1482203119801220e-03  -2.7080535910730674e-03  -1.6144632509988374e-03  -4.0992391724544705e-04  1.2167273811959586e-04  3.8854411505490056e-04  1.2889037663595510e-03  3.7337036802744666e-03  7.8693864071939512e-03  1.2409649927873079e-02  1.6067713135429054e-02  1.8066611909497814e-02  1.7838507466486887e-02  1.5101807619737929e-02  9.9771477813718323e-03  2.9588031428346762e-03  -5.2710192846187271e-03  -1.3835442210623546e-02  -2.1269683517068528e-02  -2.6006176326654036e-02  -2.6666425056650869e-02  -2.2603689845819376e-02  -1.4553320821768405e-02  -4.8330539938270783e-03  3.2240737826361911e-03  7.5325995222412269e-03  8.3588884665003835e-03  7.0054388300085828e-03  5.0331802331755778e-03  3.3018875371647913e-03  1.6842149348252798e-03  -1.7860308162510928e-04  -4.0844071813340207e-04  -7.7638288708912796e-03  -8.4460020570388105e-03  -4.1029061041619967e-03  7.9211428474716369e-04  4.3856073906722937e-03  9.3215297488548100e-03  1.8696765535700519e-02  3.1975291972311269e-02  4.5906801500989865e-02  5.6553775185293642e-02  6.1048202717162242e-02  5.8597758419916289e-02  4.9927576829012922e-02  3.6394995095457759e-02  1.9386111797206406e-02  9.5704692656349192e-05  -2.0298971799902435e-02  -4.0343058142871369e-02  -5.8253037755733636e-02  -7.1479836189433751e-02  -7.7161224392139224e-02  -7.2940715635218104e-02  -5.8417274564715391e-02  -3.6430881325660455e-02  -1.2600665124676403e-02  5.8379433146606074e-03  1.5831613914214584e-02  1.8342450573240521e-02  1.5998760586610671e-02  1.2005965898205875e-02  7.2041349303860139e-03  2.7903586827298803e-04  -1.3443049293322196e-03  -1.4567401820685440e-02  -1.2841513888361177e-02  -2.4585528216699410e-03  8.6248968616184328e-03  2.0612012136499606e-02  3.8642266499889021e-02  6.2583772820855962e-02  8.6258132683081745e-02  1.0313767053897868e-01  1.0971120382817766e-01  1.0578845533456743e-01  9.3217531848520857e-02  7.4437960016449534e-02  5.1515080482008757e-02  2.5862011316167451e-02  -1.6457007338456287e-03  -3.0430644691719543e-02  -5.9570029995290895e-02  -8.7354223250894411e-02  -1.1115178234575648e-01  -1.2707992527589276e-01  -1.3071239052257330e-01  -1.1871367414025359e-01  -9.1399148692821244e-02  -5.4816121948936654e-02  -1.9171563996024772e-02  6.0452119650688313e-03  1.8989297381783340e-02  2.2709453399563210e-02  2.0205029304381752e-02  1.3741019461835426e-02  1.0076414195247109e-03  -2.8779170458075281e-03  -2.0590033948324829e-02  -1.2139647156792534e-02  7.7235997474735200e-03  2.9488785973433435e-02  5.7005073895453930e-02  9.1314939812514387e-02  1.2463361970190748e-01  1.4830542494578550e-01  1.5811516371447160e-01  1.5439134967598400e-01  1.3998325547015630e-01  1.1821871387290356e-01  9.1781740641724618e-02  6.2448174209101676e-02  3.1227886509373963e-02  -1.3651452538552364e-03  -3.5014154870888430e-02  -6.9502589595809294e-02  -1.0420475651933357e-01  -1.3733663918577321e-01  -1.6545161967877936e-01  -1.8313378104176542e-01  -1.8394609142387683e-01  -1.6307091405117866e-01  -1.2132773808096801e-01  -6.8554592951021079e-02  -2.1215709691222169e-02  8.1704814756911395e-03  2.1636467782840511e-02  2.4571632045006443e-02  1.8539543518994402e-02  1.4730379585148341e-03  -5.0344277158524027e-03  -2.2533493326880271e-02  -2.2076913648473129e-03  3.0513204341149971e-02  6.8141003707305997e-02  1.1241014226661754e-01  1.5586176859190892e-01  1.8775939845086001e-01  2.0239317379695673e-01  2.0011554014089503e-01  1.8468515689204129e-01  1.6050742969100878e-01  1.3121404656794755e-01  9.9324356631405333e-02  6.6321835323207651e-02  3.2858180696703265e-02  -9.8237623283682152e-04  -3.5424601756013002e-02  -7.0874035426664261e-02  -1.0758860100357534e-01  -1.4523916950683485e-01  -1.8217164592765722e-01  -2.1428980508744747e-01  -2.3435919179880352e-01  -2.3313343519672028e-01  -2.0334929425951642e-01  -1.4591322353700117e-01  -7.5301419376229695e-02  -1.6634047197581527e-02  1.3950398815608027e-02  2.4710447993469675e-02  2.0894637184345005e-02  1.7170475286249860e-03  -7.3255874038056085e-03  -1.5968419142667386e-02  1.9581599560514602e-02  6.7882236307922991e-02  1.2186770190856175e-01  1.7600411594666160e-01  2.1817973251912562e-01  2.4007352641799060e-01  2.4109180106488479e-01  2.2565893667152098e-01  1.9953964430211107e-01  1.6773891739585534e-01  1.3377553577342255e-01  9.9587480471691442e-02  6.5842094252328634e-02  3.2467724271537393e-02  -8.8563315917615710e-04  -3.4594673803037865e-02  -6.8985368422799287e-02  -1.0444997170410002e-01  -1.4149442762991918e-01  -1.8042809060154227e-01  -2.2023905202956343e-01  -2.5650697281113394e-01  -2.7968259522134764e-01  -2.7645048537670636e-01  -2.3603007085243910e-01  -1.5995424665562333e-01  -7.0189431926687182e-02  -4.1795383969332901e-03  2.1321510465641968e-02  2.2069449880331528e-02  2.0395284484751282e-03  -7.8711243405169429e-03  1.9868356168632169e-03  5.3510689062516020e-02  1.1718022190454103e-01  1.8209555501148372e-01  2.3666734375360057e-01  2.6929024946131386e-01  2.7676032757860541e-01  2.6340075457469797e-01  2.3647708684023394e-01  2.0284971628947759e-01  1.6738536515344285e-01  1.3249596126050209e-01  9.8666044492122892e-02  6.5497185583018785e-02  3.2491975682357926e-02  -6.7488768635546627e-04  -3.4182689966947601e-02  -6.8036087849519533e-02  -1.0222715215149888e-01  -1.3701703732008452e-01  -1.7318803546227274e-01  -2.1204095998661102e-01  -2.5387082836943581e-01  -2.9419839545877097e-01  -3.2015396230946197e-01  -3.1250650953848480e-01  -2.5629592020335717e-01  -1.5646589320052615e-01  -4.8937402704984062e-02  1.2640875283777850e-02  2.2915606256420550e-02  2.8390611438150427e-03  -4.5354449360129881e-03  3.1230647747522516e-02  9.7207345338169326e-02  1.7230337984347471e-01  2.4037620440250090e-01  2.8753368255856093e-01  3.0606084490928659e-01  2.9834303777377869e-01  2.7267826731855299e-01  2.3818790679674465e-01  2.0170231594423471e-01  1.6648109691380969e-01  1.3284961644856672e-01  9.9962626712437358e-02  6.7083464845855020e-02  3.3879003770630411e-02  2.7040582354260172e-04  -3.3710092650348467e-02  -6.7958551231602854e-02  -1.0228496975408205e-01  -1.3644084882522683e-01  -1.7039927357593126e-01  -2.0509144527189621e-01  -2.4302747658573673e-01  -2.8639874899442330e-01  -3.3048040761643505e-01  -3.5701912440109645e-01  -3.3848906556305736e-01  -2.5682404715876084e-01  -1.2774936540360782e-01  -1.3138982715319420e-02  2.2834453586447121e-02  4.5916429586473429e-03  3.1327640675097115e-03  6.9396491438716817e-02  1.4624022164500827e-01  2.2704420048118143e-01  2.9131252354451231e-01  3.2628810530530206e-01  3.2954629633844418e-01  3.0856971843141423e-01  2.7461867570281628e-01  2.3729884196049522e-01  2.0161849642521301e-01  1.6814429582693352e-01  1.3554689320289182e-01  1.0277571376199340e-01  6.9516496206130818e-02  3.5814431341931179e-02  1.7619939520009283e-03  -3.2586797802531826e-02  -6.7229861398148627e-02  -1.0211619052221785e-01  -1.3700181487255195e-01  -1.7137309912500834e-01  -2.0473635895038281e-01  -2.3795989780925611e-01  -2.7501856735312241e-01  -3.2044848934644632e-01  -3.6782249998961719e-01  -3.8947079214199853e-01  -3.4745423537385034e-01  -2.2657345626840419e-01  -6.9574080830377930e-02  1.8525612140660275e-02  7.5615040841190331e-03  1.3862510137868114e-02  1.1258545418807048e-01  1.9592927584318351e-01  2.7698728506838893e-01  3.3277337469300733e-01  3.5376722860367565e-01  3.4305155652745500e-01  3.1235812571270288e-01  2.7453999305359378e-01  2.3778981294593488e-01  2.0400881055821482e-01  1.7155599844100455e-01  1.3883898728590849e-01  1.0546733098464336e-01  7.1657138940793230e-02  3.7620334174808208e-02  3.4130113876457619e-03  -3.0999494992603606e-02  -6.5680648574999931e-02  -1.0069895018010502e-01  -1.3606620015322540e-01  -1.7155821520216544e-01  -2.0639186796530687e-01  -2.3944187129683941e-01  -2.7150481683763517e-01  -3.0875929192585427e-01  -3.5810442078823740e-01  -4.0692841724833850e-01  -4.1152770851934667e-01  -3.2507174772370573e-01  -1.5305706669727653e-01  9.6590440573003449e-04  1.1099680438355020e-02  2.5237309046159527e-02  1.5655339193634721e-01  2.4252066064406885e-01  3.1983205851228069e-01  3.6492105972166256e-01  3.7239773261404707e-01  3.5044023200145608e-01  3.1387768726486892e-01  2.7542640737640939e-01  2.4038124046811482e-01  2.0773194963568456e-01  1.7509347305594650e-01  1.4162475491660451e-01  1.0764856833072696e-01  7.3547651658463623e-02  3.9412806288366797e-02  5.1820287650958079e-03  -2.9223225057733254e-02  -6.3856397140682836e-02  -9.8768403254107739e-02  -1.3405913271299383e-01  -1.6985387323548679e-01  -2.0601003975650212e-01  -2.4140646209812494e-01  -2.7410169117842698e-01  -3.0540872788243301e-01  -3.4545622120798969e-01  -4.0142355419362868e-01  -4.4401693009442500e-01  -4.0679179122461051e-01  -2.4859367046194111e-01  -3.8673431967443897e-02  1.6866387500558765e-02  3.4623338203836312e-02  1.9755040312637881e-01  2.8356865320874342e-01  3.5488542268975548e-01  3.8910827831064437e-01  3.8494227117052932e-01  3.5489665727532504e-01  3.1551582218504798e-01  2.7790133966102465e-01  2.4413679367028074e-01  2.1151766733846308e-01  1.7810267226463186e-01  1.4396696867038106e-01  1.0972437419253141e-01  7.5579285458929280e-02  4.1433921888723239e-02  7.1729730059388284e-03  -2.7266469004741264e-02  -6.1918526113182909e-02  -9.6807460456781902e-02  -1.3197837636482707e-01  -1.6757161711387339e-01  -2.0386943234693766e-01  -2.4081021963330074e-01  -2.7662883296817875e-01  -3.0843085468400194e-01  -3.4015440108223011e-01  -3.8829751939542329e-01  -4.5064789722931414e-01  -4.6334236623133535e-01  -3.4242190938825284e-01  -1.0089370292285045e-01  2.7448823425516952e-02  3.9952541934941757e-02  2.3268289648391177e-01  3.1775724653805842e-01  3.8240828863074761e-01  4.0700232649210816e-01  3.9371408004050501e-01  3.5837939025774979e-01  3.1800812258676064e-01  2.8138859601324501e-01  2.4806765933968741e-01  2.1486145133056081e-01  1.8069997368716903e-01  1.4622760979291957e-01  1.1195402060671784e-01  7.7826916346239602e-02  4.3665235106896010e-02  9.3777769962129394e-03  -2.5078875936770089e-02  -5.9747180589592747e-02  -9.4667416666246257e-02  -1.2986625975598526e-01  -1.6538858038956661e-01  -2.0143786018324569e-01  -2.3850225179325096e-01  -2.7641064109906904e-01  -3.1199679606200009e-01  -3.4213849008074460e-01  -3.7880399987533681e-01  -4.4255292066282892e-01  -4.9477880881552966e-01  -4.2434830354876091e-01  -1.7787168569428582e-01  3.9184419865782999e-02  4.0125592353840160e-02  2.5988427172659179e-01  3.4458812172820963e-01  4.0302867220238364e-01  4.2007922024795558e-01  4.0025641186765548e-01  3.6173344232755139e-01  3.2116356724509681e-01  2.8514534983222484e-01  2.5166862863409661e-01  2.1776610771825158e-01  1.8311674421349686e-01  1.4853720677686844e-01  1.1428955592948192e-01  8.0165355803869603e-02  4.5999917413710428e-02  1.1738565312064063e-02  -2.2666977025245037e-02  -5.7283633423778492e-02  -9.2179706259679986e-02  -1.2740887900211603e-01  -1.6300637735690116e-01  -1.9903816439289437e-01  -2.3584452003714146e-01  -2.7415962251791270e-01  -3.1296166203123360e-01  -3.4658377761549158e-01  -3.7640461897573629e-01  -4.3024458542154281e-01  -5.0619437237339293e-01  -4.8914552541295381e-01  -2.5888149049447068e-01  4.5559954361264046e-02  3.4974381290897201e-02  2.7788908717950905e-01  3.6388975320217887e-01  4.1744307566112643e-01  4.2936829160893719e-01  4.0540313519111076e-01  3.6510837168954779e-01  3.2452645143666980e-01  2.8866443936081743e-01  2.5478847959817841e-01  2.2033341516801325e-01  1.8542239153899323e-01  1.5082404426393234e-01  1.1660000903824203e-01  8.2495552718760454e-02  4.8386295019737999e-02  1.4228632312488292e-02  -2.0045259139916661e-02  -5.4526206451392126e-02  -8.9309650050761968e-02  -1.2448228060216926e-01  -1.6010685153883586e-01  -1.9624034986198929e-01  -2.3303545674107204e-01  -2.7112915899451706e-01  -3.1125412116613155e-01  -3.4951124178192211e-01  -3.7895525189491208e-01  -4.2011204574326660e-01  -5.0419237791525173e-01  -5.3592337836746395e-01  -3.3592322717495843e-01  4.3776483574867332e-02  2.6344905930455187e-02  2.8511271832770230e-01  3.7595681099812173e-01  4.2608583606746603e-01  4.3549398572046766e-01  4.0947367751316532e-01  3.6836483181297314e-01  3.2770079730065704e-01  2.9168559418717160e-01  2.5739768231000432e-01  2.2259034212185952e-01  1.8755845100548243e-01  1.5297098307932261e-01  1.1879076996845053e-01  8.4768743006383693e-02  5.0801229558057256e-02  1.6834333487921200e-02  -1.7219914174942459e-02  -5.1470995176982601e-02  -8.6038550211991041e-02  -1.2104582563503982e-01  -1.5658782942318430e-01  -1.9273377446642140e-01  -2.2962574028042207e-01  -2.6764545049925798e-01  -3.0787149339466718e-01  -3.4939576893294616e-01  -3.8268299386604460e-01  -4.1413280159796939e-01  -4.9454632907572671e-01  -5.6642633031239964e-01  -4.0471761557885155e-01  3.4764346386064016e-02  1.6394251693669024e-02  2.8054719624716729e-01  3.8092717374387930e-01  4.2926886265398922e-01  4.3865064199933712e-01  4.1252670112653961e-01  3.7132536993771165e-01  3.3044930420298102e-01  2.9408221441421839e-01  2.5946340660340922e-01  2.2448909762336372e-01  1.8942804718813977e-01  1.5487894006651981e-01  1.2079419670229809e-01  8.6941199571415995e-02  5.3211531886515784e-02  1.9533306254805195e-02  -1.4198649263131255e-02  -4.8109623060787740e-02  -8.2340299989058716e-02  -1.1704802638407721e-01  -1.5237201684849999e-01  -1.8839255889339707e-01  -2.2525652248186487e-01  -2.6333874645441691e-01  -3.0342341953598945e-01  -3.4635737944515965e-01  -3.8465001266307258e-01  -4.1137508854890137e-01  -4.8122725639705655e-01  -5.8349113781224304e-01  -4.6364624021555695e-01  2.1025323841658811e-02  6.0794150978599765e-03  2.6474966562358793e-01  3.7813263511494244e-01  4.2741365776749818e-01  4.3862598958187415e-01  4.1446672208319241e-01  3.7386712424629542e-01  3.3270037186849055e-01  2.9579303654980738e-01  2.6091689424871700e-01  2.2594007640566416e-01  1.9093744066782095e-01  1.5646561373384776e-01  1.2254108113148300e-01  8.8952871943258613e-02  5.5567800261152524e-02  2.2291002269481937e-02  -1.0995409751519967e-02  -4.4433894672531025e-02  -7.8187152179229877e-02  -1.1244136744918093e-01  -1.4737291602835520e-01  -1.8309534403198816e-01  -2.1974983725400324e-01  -2.5776443351459155e-01  -2.9784188791716593e-01  -3.4100102625139073e-01  -3.8332191950798494e-01  -4.0972092202651844e-01  -4.6637056735805482e-01  -5.8996684978595326e-01  -5.1266230601900209e-01  5.0482853967044362e-03  -3.3435228725217552e-03  2.3871904626831067e-01  3.6666015531948182e-01  4.2066018314693443e-01  4.3514463490939020e-01  4.1494184709451837e-01  3.7591043518587225e-01  3.3448698365091717e-01  2.9684121153880860e-01  2.6167424799471389e-01  2.2681799159573046e-01  1.9198549940390139e-01  1.5765498378881831e-01  1.2395586626253435e-01  9.0726681620997687e-02  5.7803857630353728e-02  2.5061205866662554e-02  -7.6354410785731772e-03  -4.0445979402744636e-02  -7.3556557451860863e-02  -1.0718031761270935e-01  -1.4151742660683725e-01  -1.7671374663167230e-01  -2.1294898138673404e-01  -2.5065621534159727e-01  -2.9070211800819867e-01  -3.3372473756424714e-01  -3.7821486625789885e-01  -4.0695571199164143e-01  -4.5070153316663231e-01  -5.8816657574232856e-01  -5.5253789183863899e-01  -1.1429939524388604e-02  -1.0459669049323125e-02  2.0402481245694246e-01  3.4557062689260415e-01  4.0863752303326734e-01  4.2796812440804166e-01  4.1335396598452273e-01  3.7728264056381378e-01  3.3590615802694257e-01  2.9733228295816788e-01  2.6168590800923058e-01  2.2696477943995558e-01  1.9243046781615736e-01  1.5835441605074715e-01  1.2496052939764744e-01  9.2179344436665409e-02  5.9840292547462315e-02  2.7780886104932873e-02  -4.1607817126084650e-03  -3.6165304848165214e-02  -6.8443126646269226e-02  -1.0122768674828844e-01  -1.3473448742046562e-01  -1.6913830596386917e-01  -2.0468382115064973e-01  -2.4185549823562219e-01  -2.8158679558358379e-01  -3.2450400028928333e-01  -3.6939432390659727e-01  -4.0118661607632239e-01  -4.3404143038823034e-01  -5.7964429044486210e-01  -5.8442746200422524e-01  -2.7697984371833611e-02  -1.4230475224621272e-02  1.6311622684692254e-01  3.1427774280606280e-01  3.9034932288605589e-01  4.1677546290492112e-01  4.0895653581248959e-01  3.7751566481544541e-01  3.3701335485002526e-01  2.9744581916517454e-01  2.6098538030801210e-01  2.2622821559715883e-01  1.9206590197035966e-01  1.5840668831724780e-01  1.2545034772925323e-01  9.3224154992926717e-02  6.1593623798504978e-02  3.0373014975217768e-02  -6.3211356287721599e-04  -3.1631750682669185e-02  -6.2858531576388835e-02  -9.4558274705020845e-02  -1.2695530862016705e-01  -1.6026767214814694e-01  -1.9482660279920963e-01  -2.3119238519668736e-01  -2.7029943885644275e-01  -3.1287808214749213e-01  -3.5717693603731016e-01  -3.9079945387353221e-01  -4.1575899329712712e-01  -5.6508093958077210e-01  -6.0964094266902757e-01  -4.4209588825532553e-02  -1.4574084880268873e-02  1.1957342466294509e-01  2.7303993617826683e-01  3.6429227206076042e-01  4.0087993908375597e-01  4.0095491082725637e-01  3.7572518261784404e-01  3.3755347545769171e-01  2.9735495167832882e-01  2.5972934077222920e-01  2.2454730955404717e-01  1.9065952019611879e-01  1.5755619017764619e-01  1.2523325100130250e-01  9.3731294803745535e-02  6.2964346805419361e-02  3.2753448952308063e-02  2.8791273890513571e-03  -2.6894020938633287e-02  -5.6818703069875368e-02  -8.7147083450471993e-02  -1.1812183164127493e-01  -1.5002951480312995e-01  -1.8330000441916600e-01  -2.1853241346111776e-01  -2.5671177037934056e-01  -2.9840585189545266e-01  -3.4143395307682306e-01  -3.7487761172317713e-01  -3.9457880280989999e-01  -5.4452696706011749e-01  -6.2931480791649019e-01  -6.2895086270805922e-02  -1.2551877562236019e-02  7.7910275025122364e-02  2.2358169528869432e-01  3.2891112394135119e-01  3.7893192231014516e-01  3.8846690878449774e-01  3.7068669082509192e-01  3.3664703164572413e-01  2.9692056711845144e-01  2.5812469564224960e-01  2.2203982570057046e-01  1.8808958372487031e-01  1.5552314946939808e-01  1.2401586071363087e-01  9.3471256864308142e-02  6.3791840095471605e-02  3.4808096067712298e-02  6.2962989424416201e-03  -2.1997504791749549e-02  -5.0333495821873867e-02  -7.8978487288817456e-02  -1.0821873673583809e-01  -1.3842464580179115e-01  -1.7008641677955638e-01  -2.0382573341039883e-01  -2.4065194969258810e-01  -2.8083617228942315e-01  -3.2137239307910681e-01  -3.5319611336788237e-01  -3.6865698823748883e-01  -5.1755525370760536e-01  -6.4409164190809842e-01  -8.7430700935589800e-02  -9.9027297754744736e-03  4.2768530366304576e-02  1.6941620336336069e-01  2.8361807870795230e-01  3.4896640633656911e-01  3.7022405577935807e-01  3.6101864069737755e-01  3.3272319814505846e-01  2.9520989767192590e-01  2.5603470067614797e-01  2.1890444575707585e-01  1.8446948281525366e-01  1.5220283011650843e-01  1.2154746548659469e-01  9.2168398356049050e-02  6.3845761319801825e-02  3.6370482727717202e-02  9.5056023902555485e-03  -1.7008844402896201e-02  -4.3451172351492408e-02  -7.0114496894778167e-02  -9.7341914357296472e-02  -1.25