<?xml version="1.0"?>
<VTKFile type="UnstructuredGrid"  version="0.1"  >
<UnstructuredGrid>
<Piece  NumberOfPoints="16641" NumberOfCells="16384">
<Points>
<DataArray  type="Float64"  NumberOfComponents="3"  format="ascii">0 0 0  0.0078125 0 0  0.015625 0 0  0.0234375 0 0  0.03125 0 0  0.0390625 0 0  0.046875 0 0  0.0546875 0 0  0.0625 0 0  0.0703125 0 0  0.078125 0 0  0.0859375 0 0  0.09375 0 0  0.1015625 0 0  0.109375 0 0  0.1171875 0 0  0.125 0 0  0.1328125 0 0  0.140625 0 0  0.1484375 0 0  0.15625 0 0  0.1640625 0 0  0.171875 0 0  0.1796875 0 0  0.1875 0 0  0.1953125 0 0  0.203125 0 0  0.2109375 0 0  0.21875 0 0  0.2265625 0 0  0.234375 0 0  0.2421875 0 0  0.25 0 0  0.2578125 0 0  0.265625 0 0  0.2734375 0 0  0.28125 0 0  0.2890625 0 0  0.296875 0 0  0.3046875 0 0  0.3125 0 0  0.3203125 0 0  0.328125 0 0  0.3359375 0 0  0.34375 0 0  0.3515625 0 0  0.359375 0 0  0.3671875 0 0  0.375 0 0  0.3828125 0 0  0.390625 0 0  0.3984375 0 0  0.40625 0 0  0.4140625 0 0  0.421875 0 0  0.4296875 0 0  0.4375 0 0  0.4453125 0 0  0.453125 0 0  0.4609375 0 0  0.46875 0 0  0.4765625 0 0  0.484375 0 0  0.4921875 0 0  0.5 0 0  0.5078125 0 0  0.515625 0 0  0.5234375 0 0  0.53125 0 0  0.5390625 0 0  0.546875 0 0  0.5546875 0 0  0.5625 0 0  0.5703125 0 0  0.578125 0 0  0.5859375 0 0  0.59375 0 0  0.6015625 0 0  0.609375 0 0  0.6171875 0 0  0.625 0 0  0.6328125 0 0  0.640625 0 0  0.6484375 0 0  0.65625 0 0  0.6640625 0 0  0.671875 0 0  0.6796875 0 0  0.6875 0 0  0.6953125 0 0  0.703125 0 0  0.7109375 0 0  0.71875 0 0  0.7265625 0 0  0.734375 0 0  0.7421875 0 0  0.75 0 0  0.7578125 0 0  0.765625 0 0  0.7734375 0 0  0.78125 0 0  0.7890625 0 0  0.796875 0 0  0.8046875 0 0  0.8125 0 0  0.8203125 0 0  0.828125 0 0  0.8359375 0 0  0.84375 0 0  0.8515625 0 0  0.859375 0 0  0.8671875 0 0  0.875 0 0  0.8828125 0 0  0.890625 0 0  0.8984375 0 0  0.90625 0 0  0.9140625 0 0  0.921875 0 0  0.9296875 0 0  0.9375 0 0  0.9453125 0 0  0.953125 0 0  0.9609375 0 0  0.96875 0 0  0.9765625 0 0  0.984375 0 0  0.9921875 0 0  1 0 0  0 0.0078125 0  0.0078125 0.0078125 0  0.015625 0.0078125 0  0.0234375 0.0078125 0  0.03125 0.0078125 0  0.0390625 0.0078125 0  0.046875 0.0078125 0  0.0546875 0.0078125 0  0.0625 0.0078125 0  0.0703125 0.0078125 0  0.078125 0.0078125 0  0.0859375 0.0078125 0  0.09375 0.0078125 0  0.1015625 0.0078125 0  0.109375 0.0078125 0  0.1171875 0.0078125 0  0.125 0.0078125 0  0.1328125 0.0078125 0  0.140625 0.0078125 0  0.1484375 0.0078125 0  0.15625 0.0078125 0  0.1640625 0.0078125 0  0.171875 0.0078125 0  0.1796875 0.0078125 0  0.1875 0.0078125 0  0.1953125 0.0078125 0  0.203125 0.0078125 0  0.2109375 0.0078125 0  0.21875 0.0078125 0  0.2265625 0.0078125 0  0.234375 0.0078125 0  0.2421875 0.0078125 0  0.25 0.0078125 0  0.2578125 0.0078125 0  0.265625 0.0078125 0  0.2734375 0.0078125 0  0.28125 0.0078125 0  0.2890625 0.0078125 0  0.296875 0.0078125 0  0.3046875 0.0078125 0  0.3125 0.0078125 0  0.3203125 0.0078125 0  0.328125 0.0078125 0  0.3359375 0.0078125 0  0.34375 0.0078125 0  0.3515625 0.0078125 0  0.359375 0.0078125 0  0.3671875 0.0078125 0  0.375 0.0078125 0  0.3828125 0.0078125 0  0.390625 0.0078125 0  0.3984375 0.0078125 0  0.40625 0.0078125 0  0.4140625 0.0078125 0  0.421875 0.0078125 0  0.4296875 0.0078125 0  0.4375 0.0078125 0  0.4453125 0.0078125 0  0.453125 0.0078125 0  0.4609375 0.0078125 0  0.46875 0.0078125 0  0.4765625 0.0078125 0  0.484375 0.0078125 0  0.4921875 0.0078125 0  0.5 0.0078125 0  0.5078125 0.0078125 0  0.515625 0.0078125 0  0.5234375 0.0078125 0  0.53125 0.0078125 0  0.5390625 0.0078125 0  0.546875 0.0078125 0  0.5546875 0.0078125 0  0.5625 0.0078125 0  0.5703125 0.0078125 0  0.578125 0.0078125 0  0.5859375 0.0078125 0  0.59375 0.0078125 0  0.6015625 0.0078125 0  0.609375 0.0078125 0  0.6171875 0.0078125 0  0.625 0.0078125 0  0.6328125 0.0078125 0  0.640625 0.0078125 0  0.6484375 0.0078125 0  0.65625 0.0078125 0  0.6640625 0.0078125 0  0.671875 0.0078125 0  0.6796875 0.0078125 0  0.6875 0.0078125 0  0.6953125 0.0078125 0  0.703125 0.0078125 0  0.7109375 0.0078125 0  0.71875 0.0078125 0  0.7265625 0.0078125 0  0.734375 0.0078125 0  0.7421875 0.0078125 0  0.75 0.0078125 0  0.7578125 0.0078125 0  0.765625 0.0078125 0  0.7734375 0.0078125 0  0.78125 0.0078125 0  0.7890625 0.0078125 0  0.796875 0.0078125 0  0.8046875 0.0078125 0  0.8125 0.0078125 0  0.8203125 0.0078125 0  0.828125 0.0078125 0  0.8359375 0.0078125 0  0.84375 0.0078125 0  0.8515625 0.0078125 0  0.859375 0.0078125 0  0.8671875 0.0078125 0  0.875 0.0078125 0  0.8828125 0.0078125 0  0.890625 0.0078125 0  0.8984375 0.0078125 0  0.90625 0.0078125 0  0.9140625 0.0078125 0  0.921875 0.0078125 0  0.9296875 0.0078125 0  0.9375 0.0078125 0  0.9453125 0.0078125 0  0.953125 0.0078125 0  0.9609375 0.0078125 0  0.96875 0.0078125 0  0.9765625 0.0078125 0  0.984375 0.0078125 0  0.9921875 0.0078125 0  1 0.0078125 0  0 0.015625 0  0.0078125 0.015625 0  0.015625 0.015625 0  0.0234375 0.015625 0  0.03125 0.015625 0  0.0390625 0.015625 0  0.046875 0.015625 0  0.0546875 0.015625 0  0.0625 0.015625 0  0.0703125 0.015625 0  0.078125 0.015625 0  0.0859375 0.015625 0  0.09375 0.015625 0  0.1015625 0.015625 0  0.109375 0.015625 0  0.1171875 0.015625 0  0.125 0.015625 0  0.1328125 0.015625 0  0.140625 0.015625 0  0.1484375 0.015625 0  0.15625 0.015625 0  0.1640625 0.015625 0  0.171875 0.015625 0  0.1796875 0.015625 0  0.1875 0.015625 0  0.1953125 0.015625 0  0.203125 0.015625 0  0.2109375 0.015625 0  0.21875 0.015625 0  0.2265625 0.015625 0  0.234375 0.015625 0  0.2421875 0.015625 0  0.25 0.015625 0  0.2578125 0.015625 0  0.265625 0.015625 0  0.2734375 0.015625 0  0.28125 0.015625 0  0.2890625 0.015625 0  0.296875 0.015625 0  0.3046875 0.015625 0  0.3125 0.015625 0  0.3203125 0.015625 0  0.328125 0.015625 0  0.3359375 0.015625 0  0.34375 0.015625 0  0.3515625 0.015625 0  0.359375 0.015625 0  0.3671875 0.015625 0  0.375 0.015625 0  0.3828125 0.015625 0  0.390625 0.015625 0  0.3984375 0.015625 0  0.40625 0.015625 0  0.4140625 0.015625 0  0.421875 0.015625 0  0.4296875 0.015625 0  0.4375 0.015625 0  0.4453125 0.015625 0  0.453125 0.015625 0  0.4609375 0.015625 0  0.46875 0.015625 0  0.4765625 0.015625 0  0.484375 0.015625 0  0.4921875 0.015625 0  0.5 0.015625 0  0.5078125 0.015625 0  0.515625 0.015625 0  0.5234375 0.015625 0  0.53125 0.015625 0  0.5390625 0.015625 0  0.546875 0.015625 0  0.5546875 0.015625 0  0.5625 0.015625 0  0.5703125 0.015625 0  0.578125 0.015625 0  0.5859375 0.015625 0  0.59375 0.015625 0  0.6015625 0.015625 0  0.609375 0.015625 0  0.6171875 0.015625 0  0.625 0.015625 0  0.6328125 0.015625 0  0.640625 0.015625 0  0.6484375 0.015625 0  0.65625 0.015625 0  0.6640625 0.015625 0  0.671875 0.015625 0  0.6796875 0.015625 0  0.6875 0.015625 0  0.6953125 0.015625 0  0.703125 0.015625 0  0.7109375 0.015625 0  0.71875 0.015625 0  0.7265625 0.015625 0  0.734375 0.015625 0  0.7421875 0.015625 0  0.75 0.015625 0  0.7578125 0.015625 0  0.765625 0.015625 0  0.7734375 0.015625 0  0.78125 0.015625 0  0.7890625 0.015625 0  0.796875 0.015625 0  0.8046875 0.015625 0  0.8125 0.015625 0  0.8203125 0.015625 0  0.828125 0.015625 0  0.8359375 0.015625 0  0.84375 0.015625 0  0.8515625 0.015625 0  0.859375 0.015625 0  0.8671875 0.015625 0  0.875 0.015625 0  0.8828125 0.015625 0  0.890625 0.015625 0  0.8984375 0.015625 0  0.90625 0.015625 0  0.9140625 0.015625 0  0.921875 0.015625 0  0.9296875 0.015625 0  0.9375 0.015625 0  0.9453125 0.015625 0  0.953125 0.015625 0  0.9609375 0.015625 0  0.96875 0.015625 0  0.9765625 0.015625 0  0.984375 0.015625 0  0.9921875 0.015625 0  1 0.015625 0  0 0.0234375 0  0.0078125 0.0234375 0  0.015625 0.0234375 0  0.0234375 0.0234375 0  0.03125 0.0234375 0  0.0390625 0.0234375 0  0.046875 0.0234375 0  0.0546875 0.0234375 0  0.0625 0.0234375 0  0.0703125 0.0234375 0  0.078125 0.0234375 0  0.0859375 0.0234375 0  0.09375 0.0234375 0  0.1015625 0.0234375 0  0.109375 0.0234375 0  0.1171875 0.0234375 0  0.125 0.0234375 0  0.1328125 0.0234375 0  0.140625 0.0234375 0  0.1484375 0.0234375 0  0.15625 0.0234375 0  0.1640625 0.0234375 0  0.171875 0.0234375 0  0.1796875 0.0234375 0  0.1875 0.0234375 0  0.1953125 0.0234375 0  0.203125 0.0234375 0  0.2109375 0.0234375 0  0.21875 0.0234375 0  0.2265625 0.0234375 0  0.234375 0.0234375 0  0.2421875 0.0234375 0  0.25 0.0234375 0  0.2578125 0.0234375 0  0.265625 0.0234375 0  0.2734375 0.0234375 0  0.28125 0.0234375 0  0.2890625 0.0234375 0  0.296875 0.0234375 0  0.3046875 0.0234375 0  0.3125 0.0234375 0  0.3203125 0.0234375 0  0.328125 0.0234375 0  0.3359375 0.0234375 0  0.34375 0.0234375 0  0.3515625 0.0234375 0  0.359375 0.0234375 0  0.3671875 0.0234375 0  0.375 0.0234375 0  0.3828125 0.0234375 0  0.390625 0.0234375 0  0.3984375 0.0234375 0  0.40625 0.0234375 0  0.4140625 0.0234375 0  0.421875 0.0234375 0  0.4296875 0.0234375 0  0.4375 0.0234375 0  0.4453125 0.0234375 0  0.453125 0.0234375 0  0.4609375 0.0234375 0  0.46875 0.0234375 0  0.4765625 0.0234375 0  0.484375 0.0234375 0  0.4921875 0.0234375 0  0.5 0.0234375 0  0.5078125 0.0234375 0  0.515625 0.0234375 0  0.5234375 0.0234375 0  0.53125 0.0234375 0  0.5390625 0.0234375 0  0.546875 0.0234375 0  0.5546875 0.0234375 0  0.5625 0.0234375 0  0.5703125 0.0234375 0  0.578125 0.0234375 0  0.5859375 0.0234375 0  0.59375 0.0234375 0  0.6015625 0.0234375 0  0.609375 0.0234375 0  0.6171875 0.0234375 0  0.625 0.0234375 0  0.6328125 0.0234375 0  0.640625 0.0234375 0  0.6484375 0.0234375 0  0.65625 0.0234375 0  0.6640625 0.0234375 0  0.671875 0.0234375 0  0.6796875 0.0234375 0  0.6875 0.0234375 0  0.6953125 0.0234375 0  0.703125 0.0234375 0  0.7109375 0.0234375 0  0.71875 0.0234375 0  0.7265625 0.0234375 0  0.734375 0.0234375 0  0.7421875 0.0234375 0  0.75 0.0234375 0  0.7578125 0.0234375 0  0.765625 0.0234375 0  0.7734375 0.0234375 0  0.78125 0.0234375 0  0.7890625 0.0234375 0  0.796875 0.0234375 0  0.8046875 0.0234375 0  0.8125 0.0234375 0  0.8203125 0.0234375 0  0.828125 0.0234375 0  0.8359375 0.0234375 0  0.84375 0.0234375 0  0.8515625 0.0234375 0  0.859375 0.0234375 0  0.8671
[...]
<PointData  Scalars="u_sol"> 
<DataArray  type="Float64"  Name="u_sol"  format="ascii">1.5513113184748164e-06  -6.2817400665229071e-06  -1.7890432336597962e-05  -2.3940129269051963e-05  -2.4172267010299875e-05  -1.8808909940147049e-05  -8.6046603280069034e-06  5.3562382078056298e-06  2.1656966608572180e-05  3.8714585740164944e-05  5.5006299688442995e-05  6.9295597863895103e-05  8.0791753115068199e-05  8.9212427492091963e-05  9.4751378016894427e-05  9.7978585482896908e-05  9.9711042881735280e-05  1.0088991440481429e-04  1.0248160666855279e-04  1.0541028072173431e-04  1.1051247321651121e-04  1.1850420485907297e-04  1.2995171534408096e-04  1.4524461039327062e-04  1.6458457439232592e-04  1.8801743937115121e-04  2.1550082498540386e-04  2.4699440947496614e-04  2.8260778332117538e-04  3.2277600462729035e-04  3.6828532289805220e-04  4.2013717368754423e-04  4.7943530923783917e-04  5.4737184560374127e-04  6.2525530563123074e-04  7.1430267300083561e-04  8.1546814166275918e-04  9.2927704704755991e-04  1.0561600192801391e-03  1.1963567702636601e-03  1.3497247215906226e-03  1.5152940854089294e-03  1.6910233033644729e-03  1.8738005706006922e-03  2.0593664715712859e-03  2.2421982302849672e-03  2.4152780749266333e-03  2.5701017767672026e-03  2.6967937944495212e-03  2.7842754695745300e-03  2.8206747563805121e-03  2.7940166832027841e-03  2.6931342502397350e-03  2.5086654549302105e-03  2.2339667378287551e-03  1.8658105213174212e-03  1.4048025069210174e-03  8.5552183699835543e-04  2.2643616058347406e-04  -4.7034392787786896e-04  -1.2194019227472629e-03  -2.0024131532570973e-03  -2.7986670814310944e-03  -3.5853337081496891e-03  -4.3401954060931797e-03  -5.0379454350353977e-03  -5.6462394543257619e-03  -6.1360383008326894e-03  -6.4812879542860777e-03  -6.6573176926212644e-03  -6.6440513312409554e-03  -6.4259531711821673e-03  -5.9945775192047010e-03  -5.3493928830320291e-03  -4.4994982440110165e-03  -3.4642335542118779e-03  -2.2736645856179303e-03  -9.6777777945473216e-04  4.0451095771113133e-04  1.7895054838818329e-03  3.1307707435497723e-03  4.3682090001838413e-03  5.4506375195772132e-03  6.3400029625929983e-03  7.0084684384737750e-03  7.4394606657962352e-03  7.6332466234798127e-03  7.6029017052912104e-03  7.3728560779157508e-03  6.9752307739506213e-03  6.4463112840996324e-03  5.8230892360543029e-03  5.1407688026262307e-03  4.4377480892332163e-03  3.7377840215001303e-03  3.0522519035183983e-03  2.4020824956032128e-03  1.8049238887486183e-03  1.2710373318921325e-03  8.0973169279646067e-04  4.2721606992031320e-04  1.2526647956739298e-04  -9.8786510899536638e-05  -2.5203573677993064e-04  -3.4497993757672012e-04  -3.8993246502913635e-04  -3.9941209818835624e-04  -3.8482164252353230e-04  -3.5557231244018052e-04  -3.1882689126119291e-04  -2.7967214875064317e-04  -2.4154337346910220e-04  -2.0651142983714422e-04  -1.7547264756425030e-04  -1.4868245586664041e-04  -1.2609469533575573e-04  -1.0734354255740042e-04  -9.1874560560678504e-05  -7.9026552611700769e-05  -6.8070142143763167e-05  -5.8268068515860661e-05  -4.8930889381267357e-05  -3.9483382872377928e-05  -2.9546611439441309e-05  -1.9032153786794968e-05  -8.4306447510088731e-06  9.9721723825425559e-07  4.9294648161231309e-06  -1.8315368682486668e-07  3.8919884097029077e-06  -2.3392565543347801e-05  -2.5950964364815411e-05  5.8244017049501344e-05  2.5009008107187622e-04  5.5203992203369347e-04  9.5238559674173788e-04  1.4296238224733332e-03  1.9557280132425749e-03  2.4998827750211000e-03  3.0322660499513773e-03  3.5274348483805246e-03  3.9668253976477994e-03  4.3400855728080653e-03  4.6452077891771049e-03  4.8876488069026086e-03  5.0787497739248014e-03  5.2337939209050081e-03  5.3699911623377988e-03  5.5045738450974994e-03  5.6531014780334121e-03  5.8280097415672888e-03  6.0374421053935616e-03  6.2844470111439767e-03  6.5666631431926777e-03  6.8765996670667436e-03  7.2025777779484452e-03  7.5301955545018897e-03  7.8438444939191009e-03  8.1277648281369349e-03  8.3664037140295678e-03  8.5438656986653264e-03  8.6423972378419003e-03  8.6403621935595507e-03  8.5105154282446860e-03  8.2194864753115434e-03  7.7279999728155123e-03  6.9914268195976504e-03  5.9598096371792303e-03  4.5786561592031502e-03  2.7903565645861972e-03  5.3623716680980301e-04  -2.2409740254884692e-03  -5.5942089911664604e-03  -9.5684956257236688e-03  -1.4196991639830271e-02  -1.9497187708557795e-02  -2.5467141623029783e-02  -3.2082395162638430e-02  -3.9294348601880469e-02  -4.7030381625883994e-02  -5.5195761044278507e-02  -6.3677016529619074e-02  -7.2346275698921686e-02  -8.1065989168905506e-02  -8.9693533933852140e-02  -9.8085308356744630e-02  -1.0610008600461179e-01  -1.1360154656745347e-01  -1.2046002246852043e-01  -1.2655359757971357e-01  -1.3176873767706546e-01  -1.3600062183171654e-01  -1.3915364181497042e-01  -1.4114040548625797e-01  -1.4188430654194747e-01  -1.4132190418613177e-01  -1.3940211589683507e-01  -1.3609006815932187e-01  -1.3136770300667533e-01  -1.2523664093924611e-01  -1.1772197115164564e-01  -1.0887477775788738e-01  -9.8775510273316353e-02  -8.7535926638575234e-02  -7.5300637882770541e-02  -6.2246783700570026e-02  -4.8582288317633462e-02  -3.4541488548704015e-02  -2.0379793726974585e-02  -6.3632650041870360e-03  7.2394827687905540e-03  2.0163638328929211e-02  3.2172717853109795e-02  4.3056581670098307e-02  5.2645367828964382e-02  6.0814181160038241e-02  6.7487077436424375e-02  7.2636030547275965e-02  7.6277267436560853e-02  7.8464901635941428e-02  7.9281831946510811e-02  7.8832566287008465e-02  7.7230935844570456e-02  7.4601740094058469e-02  7.1077911486227233e-02  6.6781726217768372e-02  6.1838349266620511e-02  5.6385857535104347e-02  5.0572698476048950e-02  4.4560749846286545e-02  3.8523295131937543e-02  3.2636055372418364e-02  2.7064177153627484e-02  2.1947235283174327e-02  1.7386459495497671e-02  1.3437856588327498e-02  1.0112629249450795e-02  7.3841188841944089e-03  5.1983778435339316e-03  3.4856473410614089e-03  2.1706814695319353e-03  1.1803037082348787e-03  4.4804479585741522e-04  -8.3080422075691100e-05  -4.5943685078698245e-04  -7.1713919140084471e-04  -8.8288817117459259e-04  -9.7531236547424656e-04  -1.0067147715577818e-03  -9.8500312848875580e-04  -9.1573625644664983e-04  -8.0417964037885923e-04  -6.5735617289389484e-04  -4.8606090995199685e-04  -3.0701334595518531e-04  -1.4445337591391537e-04  -3.1168029911165399e-05  6.4383183168053621e-06  -6.8488360347673166e-07  1.7084301997836829e-06  7.9069428255104161e-05  2.9596118159141185e-04  6.7931193087889387e-04  1.2314289311934775e-03  1.9333629817228149e-03  2.7509745366354910e-03  3.6404584406869141e-03  4.5542498568214842e-03  5.4466558202556463e-03  6.2786885876855185e-03  7.0215606221295307e-03  7.6585641738972721e-03  8.1853203847155678e-03  8.6086177391179099e-03  8.9442089943498129e-03  9.2139861254401517e-03  9.4428970372191171e-03  9.6558947517111776e-03  9.8750968354110666e-03  1.0117289580491585e-02  1.0391896917908334e-02  1.0699560437321719e-02  1.1031528342602416e-02  1.1370032502105226e-02  1.1689531625588816e-02  1.1958507003047642e-02  1.2141478388172363e-02  1.2200519779396127e-02  1.2095206036566896e-02  1.1780849274859501e-02  1.1206104968634605e-02  1.0311075785010839e-02  9.0260767252245393e-03  7.2706712358873351e-03  4.9543493537119272e-03  1.9791355454367434e-03  -1.7562819857514296e-03  -6.3522458462676326e-03  -1.1902612049207964e-02  -1.8487373684548298e-02  -2.6164336860809632e-02  -3.4960609452111165e-02  -4.4864720936308757e-02  -5.5820913091655579e-02  -6.7726388492030623e-02  -8.0433438696409107e-02  -9.3755929169802257e-02  -1.0747894945181048e-01  -1.2137041795719521e-01  -1.3519300917202154e-01  -1.4871505681397365e-01  -1.6171944195542917e-01  -1.7400994540045706e-01  -1.8541497962908624e-01  -1.9578896295534981e-01  -2.0501180884245279e-01  -2.1298708484860665e-01  -2.1963937862016863e-01  -2.2491132209280423e-01  -2.2876062369454714e-01  -2.3115733363269675e-01  -2.3208142591209532e-01  -2.3152120240908955e-01  -2.2947271500135399e-01  -2.2594245240380839e-01  -2.2094120118118832e-01  -2.1448222053085192e-01  -2.0658911435760968e-01  -1.9729511610072267e-01  -1.8664608598856391e-01  -1.7470294590885913e-01  -1.6154445920366381e-01  -1.4726996699165598e-01  -1.3200147931559811e-01  -1.1588513900539874e-01  -9.9091302501584960e-02  -8.1813238741322111e-02  -6.4263964180851479e-02  -4.6673762448921782e-02  -2.9275619304467430e-02  -1.2298555357542018e-02  4.0184166382187733e-03  1.9464322010206859e-02  3.3849597448638066e-02  4.7011158673255726e-02  5.8816810308725750e-02  6.9166397161827597e-02  7.7991253616399109e-02  8.5251568867765179e-02  9.0934214357592358e-02  9.5045534212784499e-02  9.7604484507158917e-02  9.8643280181788834e-02  9.8202339452470963e-02  9.6340695320562761e-02  9.3128945541960662e-02  8.8649667582454530e-02  8.3017317562544241e-02  7.6388627347620627e-02  6.8969996657538696e-02  6.1019199691231249e-02  5.2833933429317595e-02  4.4727631905448872e-02  3.6996614988210746e-02  2.9886802498701136e-02  2.3569630119899109e-02  1.8132778675184400e-02  1.3586715886253082e-02  9.8819951869040263e-03  6.9304736166929393e-03  4.6252483261422037e-03  2.8564519687059690e-03  1.5217212422218875e-03  5.3188768166953092e-04  -1.8625890800617770e-04  -6.8997821276319123e-04  -1.0222166351109168e-03  -1.2141228426611088e-03  -1.2881919986708242e-03  -1.2616130026662051e-03  -1.1496145898485834e-03  -9.6861586319073626e-04  -7.3915754484862645e-04  -4.8811096647266523e-04  -2.5054503738666469e-04  -6.6562677602790003e-05  1.2828339446800990e-05  -7.3118750307358307e-06  3.5994591169059778e-05  2.1348008628037273e-04  5.7700757548302575e-04  1.1486231499449166e-03  1.9244416830377781e-03  2.8770111991998659e-03  3.9613392989761159e-03  5.1218166934814619e-03  6.2995605048366916e-03  7.4392122313449438e-03  8.4944554838762912e-03  9.4317448668075222e-03  1.0232052643555393e-02  1.0890756639478886e-02  1.1416004453631657e-02  1.1825974519608594e-02  1.2145458167508377e-02  1.2402133182644007e-02  1.2622794169876826e-02  1.2829764639598864e-02  1.3037646522331525e-02  1.3250607223482426e-02  1.3460476797840740e-02  1.3645873522882865e-02  1.3772442343891942e-02  1.3794349958243676e-02  1.3656590142274747e-02  1.3296741260976080e-02  1.2645283924395201e-02  1.1625027000384041e-02  1.0149718275217224e-02  8.1212702594844564e-03  5.4270673286669329e-03  1.9406416634304953e-03  -2.4740013124322979e-03  -7.9566672776551738e-03  -1.4643522390655349e-02  -2.2656287236947792e-02  -3.2089158118061852e-02  -4.2994716245478001e-02  -5.5370399303373653e-02  -6.9147349309655395e-02  -8.4184788780573644e-02  -1.0027259752270827e-01  -1.1714219864780763e-01  -1.3448475387404887e-01  -1.5197308869244452e-01  -1.6928414480358198e-01  -1.8611864193990504e-01  -2.0221555341990427e-01  -2.1736051233667406e-01  -2.3138837250276714e-01  -2.4418099925964604e-01  -2.5566173752977123e-01  -2.6578802971013721e-01  -2.7454342902868956e-01  -2.8192992252325522e-01  -2.8796113457733757e-01  -2.9265669154564827e-01  -2.9603782127591860e-01  -2.9812412049857517e-01  -2.9893139881084679e-01  -2.9847041238351979e-01  -2.9674684942551810e-01  -2.9376090509598435e-01  -2.8950237359594161e-01  -2.8395913451862620e-01  -2.7712235232659799e-01  -2.6898266622639105e-01  -2.5953624450758273e-01  -2.4878696277595103e-01  -2.3675121502611413e-01  -2.2346189275277223e-01  -2.0897309096785371e-01  -1.9336422664142672e-01  -1.7674352898018436e-01  -1.5925011051009472e-01  -1.4105411119642000e-01  -1.2235421975198982e-01  -1.0337100440861301e-01  -8.4344674346391077e-02  -6.5521941069535461e-02  -4.7131987611625722e-02  -2.9398240901798028e-02  -1.2514053168935840e-02  3.3610321734671056e-03  1.8103638855552218e-02  3.1626095055238092e-02  4.3872018840006910e-02  5.4809807519399241e-02  6.4423835022455550e-02  7.2707393218316249e-02  7.9660614958424872e-02  8.5270613678865334e-02  8.9507595788549887e-02  9.2326117833194180e-02  9.3675733692177771e-02  9.3510928989273864e-02  9.1793298954185601e-02  8.8515980803959074e-02  8.3731942713782426e-02  7.7577458591518905e-02  7.0287938163173927e-02  6.2194686812857995e-02  5.3697423325778454e-02  4.5216199533799441e-02  3.7134762375725439e-02  2.9752838492352066e-02  2.3260058276735694e-02  1.7735438407714983e-02  1.3166528678807654e-02  9.4780927374354933e-03  6.5607979568827416e-03  4.2940503562586534e-03  2.5618174194055286e-03  1.2614818034741577e-03  3.0782198660839666e-04  -3.6660793897296928e-04  -8.1359349850592040e-04  -1.0725620207344174e-03  -1.1744907510031792e-03  -1.1458750121413664e-03  -1.0124230954179718e-03  -8.0231180925452016e-04  -5.4861507930224610e-04  -2.9178063863498691e-04  -7.9646107398642364e-05  1.5529751339680924e-05  -1.3811700590116281e-05  6.8769277233114278e-05  3.4905231232881643e-04  8.6294513060671408e-04  1.6215786649669296e-03  2.6098044740232897e-03  3.7879234815384835e-03  5.0980517115190253e-03  6.4723437750116740e-03  7.8417479907855834e-03  9.1438280970953835e-03  1.0328640634066140e-02  1.1362141587016927e-02  1.2227139793365876e-02  1.2922170520789788e-02  1.3458840401915763e-02  1.3858216229332849e-02  1.4146706831476541e-02  1.4351742898141465e-02  1.4497478623584201e-02  1.4600615609049248e-02  1.4666576531658673e-02  1.4686292693460522e-02  1.4633893130382620e-02  1.4465773206432947e-02  1.4121360600544659e-02  1.3524785217990821e-02  1.2586585641816101e-02  1.1205542327147848e-02  9.2694215962507518e-03  6.6525633489959027e-03  3.2127530219969161e-03  -1.2084071781202376e-03  -6.7815607944268740e-03  -1.3682681729271343e-02  -2.2080570768429869e-02  -3.2119835603978276e-02  -4.3901695132057370e-02  -5.7464375211657447e-02  -7.2763720627165046e-02  -8.9659714063562074e-02  -1.0791411168241595e-01  -1.2720200084673525e-01  -1.4713645126893096e-01  -1.6730184458821060e-01  -1.8728984658210249e-01  -2.0673115784482338e-01  -2.2531852443950504e-01  -2.4281862820406350e-01  -2.5907332501571328e-01  -2.7399253893939679e-01  -2.8754190342343494e-01  -2.9972821988338000e-01  -3.1058518065649621e-01  -3.2016095870504019e-01  -3.2850844267457530e-01  -3.3567825247565514e-01  -3.4171425297452768e-01  -3.4665107644220994e-01  -3.5051311428603082e-01  -3.5331448266402565e-01  -3.5505957358481521e-01  -3.5574386138292102e-01  -3.5535489057118735e-01  -3.5387245937190054e-01  -3.5126947019923122e-01  -3.4751931657673529e-01  -3.4259209498882082e-01  -3.3645216422375696e-01  -3.2906463424059224e-01  -3.2039509756654000e-01  -3.1041393943110218e-01  -2.9909922175420278e-01  -2.8644181787711742e-01  -2.7245048087703599e-01  -2.5715804211674304e-01  -2.4062744290557644e-01  -2.2295745760749583e-01  -2.0428685613519534e-01  -1.8479623580323168e-01  -1.6470690399546276e-01  -1.4427181879410844e-01  -1.2376724352414711e-01  -1.0348383631642831e-01  -8.3697509572612697e-02  -6.4661269807772592e-02  -4.6586643029379954e-02  -2.9633355711473134e-02  -1.3904831793844710e-02  5.5016172487342872e-04  1.3729544522718911e-02  2.5666159440368534e-02  3.6412277020172336e-02  4.6019557802755656e-02  5.4540263215166099e-02  6.2010094209938055e-02  6.8419741141619334e-02  7.3711392413785340e-02  7.7784305308675680e-02  8.0509155199035856e-02  8.1738591784721260e-02  8.1334032437632375e-02  7.9208364328116510e-02  7.5369668459390193e-02  6.9957560277935080e-02  6.3256871658005476e-02  5.5676485629408759e-02  4.7694355376397185e-02  3.9783060575477792e-02  3.2340225849218023e-02  2.5644376298415882e-02  1.9844473172862295e-02  1.4976931138674545e-02  1.0996887710780581e-02  7.8119323161630096e-03  5.3099892791120366e-03  3.3785407066948864e-03  1.9158050216522293e-03  8.3570318929591632e-04  6.8595404293399990e-05  -4.4080750640694555e-04  -7.3685639081543647e-04  -8.5685466175684745e-04  -8.3483677332883916e-04  -7.0501292383656799e-04  -5.0465625651512352e-04  -2.7779687865253703e-04  -7.7728607607649943e-05  1.5150150861296195e-05  -1.9880121051548518e-05  9.9035223874018854e-05  4.8091598697365851e-04  1.1487586052951349e-03  2.0992679819534388e-03  3.3011937306197366e-03  4.6974786332040913e-03  6.2129871154513331e-03  7.7647168388836193e-03  9.2724296514663952e-03  1.0667611485388943e-02  1.1899437493717663e-02  1.2937293903510489e-02  1.3770165477479021e-02  1.4403695850146428e-02  1.4855846953420635e-02  1.5151915561308753e-02  1.5319397186970713e-02  1.5382934402006835e-02  1.5359356680909323e-02  1.5252992201891023e-02  1.5051328238913092e-02  1.4721424427529302e-02  1.4207842198171660e-02  1.3432215912529945e-02  1.2294188578812378e-02  1.0674238881779916e-02  8.4369245377781017e-03  5.4310702756171468e-03  1.4882982924261606e-03  -3.5768163020377932e-03  -9.9648953452928426e-03  -1.7884653506712596e-02  -2.7536385846559236e-02  -3.9088840373463760e-02  -5.2653652178408387e-02  -6.8257653634963500e-02  -8.5817811076644324e-02  -1.0512610475964536e-01  -1.2585193305155704e-01  -1.4756443972939276e-01  -1.6977255292929552e-01  -1.9197486858802598e-01  -2.1370851833066759e-01  -2.3458743521407791e-01  -2.5432406488199272e-01  -2.7273377186417530e-01  -2.8972489653481387e-01  -3.0527982091383576e-01  -3.1943257723616914e-01  -3.3224748438483792e-01  -3.4380163305721817e-01  -3.5417237186513517e-01  -3.6342966661033860e-01  -3.7163244501128273e-01  -3.7882774625617499e-01  -3.8505153714759749e-01  -3.9033027902694317e-01  -3.9468261043932407e-01  -3.9812077055535261e-01  -4.0065159451894156e-01  -4.0227703857682451e-01  -4.0299432167480159e-01  -4.0279563075926916e-01  -4.0166826561296159e-01  -3.9959493046662864e-01  -3.9654871866792679e-01  -3.9249451755402176e-01  -3.8739173344147199e-01  -3.8119157447251861e-01  -3.7383955730196972e-01  -3.6527605747563169e-01  -3.5543961153823578e-01  -3.4427038314477448e-01  -3.3171594935089371e-01  -3.1773822842556682e-01  -3.0232232302959927e-01  -2.8548627198862619e-01  -2.6729125573191242e-01  -2.4785062658242360e-01  -2.2733596729114020e-01  -2.0598014317892516e-01  -1.8407147025976406e-01  -1.6193942060545524e-01  -1.3994100302262105e-01  -1.1843151431356379e-01  -9.7739949161476436e-02  -7.8143326510387079e-02  -5.9847624226935875e-02  -4.2977454781488650e-02  -2.7575603517983275e-02  -1.3612677700960281e-02  -1.0031261146190452e-03  1.0376106583222714e-02  2.0652477722914443e-02  2.9942523402307415e-02  3.8350233419980104e-02  4.5932406611883539e-02  5.2675200801344739e-02  5.8492064431667851e-02  6.3231874701107166e-02  6.6692911708186822e-02  6.8650577073550365e-02  6.8907290272523514e-02  6.7352118395499039e-02  6.4015875363399921e-02  5.9102934687277085e-02  5.2981085823516669e-02  4.6127168501304661e-02  3.9043932606993174e-02  3.2177075796521515e-02  2.5858420928035353e-02  2.0286682829754626e-02  1.5540534912321758e-02  1.1609064222125508e-02  8.4258267929324428e-03  5.8982162246683208e-03  3.9280138402400999e-03  2.4234908972083904e-03  1.3050016364858025e-03  5.0613345901036832e-04  -2.7908872145311118e-05  -3.4321598721556137e-04  -4.8048473475967887e-04  -4.7835598958205044e-04  -3.7659823214732991e-04  -2.2048402832426371e-04  -6.4278832166380601e-05  1.2538881602655801e-05  -2.5887437901215385e-05  1.2878893427906466e-04  6.1552271429107114e-04  1.4465948225003144e-03  2.6016627819871923e-03  4.0281374915671032e-03  5.6453715805226687e-03  7.3553109173560153e-03  9.0559125883636349e-03  1.0654358746921649e-02  1.2077215942154159e-02  1.3275999321920105e-02  1.4227920351368844e-02  1.4932737000149542e-02  1.5407136782483288e-02  1.5678022789555650e-02  1.5775674146841261e-02  1.5727235658221983e-02  1.5550600122626570e-02  1.5248737237889847e-02  1.4804265806632629e-02  1.4174853892322451e-02  1.3289994954939160e-02  1.2049343753014188e-02  1.0323957870176127e-02  7.9603875405655569e-03  4.7840101795110276e-03  6.0132647001129020e-04  -4.7976284521626554e-03  -1.1638139651497917e-02  -2.0155440595010905e-02  -3.0578565069887688e-02  -4.3104735282626212e-02  -5.7866222101308658e-02  -7.4892796333507122e-02  -9.4078930637577537e-02  -1.1516622998041479e-01  -1.3774867845390731e-01  -1.6130485622838264e-01  -1.8525309512966739e-01  -2