<?xml version="1.0"?>
<VTKFile type="UnstructuredGrid"  version="0.1"  >
<UnstructuredGrid>
<Piece  NumberOfPoints="16641" NumberOfCells="16384">
<Points>
<DataArray  type="Float64"  NumberOfComponents="3"  format="ascii">0 0 0  0.0078125 0 0  0.015625 0 0  0.0234375 0 0  0.03125 0 0  0.0390625 0 0  0.046875 0 0  0.0546875 0 0  0.0625 0 0  0.0703125 0 0  0.078125 0 0  0.0859375 0 0  0.09375 0 0  0.1015625 0 0  0.109375 0 0  0.1171875 0 0  0.125 0 0  0.1328125 0 0  0.140625 0 0  0.1484375 0 0  0.15625 0 0  0.1640625 0 0  0.171875 0 0  0.1796875 0 0  0.1875 0 0  0.1953125 0 0  0.203125 0 0  0.2109375 0 0  0.21875 0 0  0.2265625 0 0  0.234375 0 0  0.2421875 0 0  0.25 0 0  0.2578125 0 0  0.265625 0 0  0.2734375 0 0  0.28125 0 0  0.2890625 0 0  0.296875 0 0  0.3046875 0 0  0.3125 0 0  0.3203125 0 0  0.328125 0 0  0.3359375 0 0  0.34375 0 0  0.3515625 0 0  0.359375 0 0  0.3671875 0 0  0.375 0 0  0.3828125 0 0  0.390625 0 0  0.3984375 0 0  0.40625 0 0  0.4140625 0 0  0.421875 0 0  0.4296875 0 0  0.4375 0 0  0.4453125 0 0  0.453125 0 0  0.4609375 0 0  0.46875 0 0  0.4765625 0 0  0.484375 0 0  0.4921875 0 0  0.5 0 0  0.5078125 0 0  0.515625 0 0  0.5234375 0 0  0.53125 0 0  0.5390625 0 0  0.546875 0 0  0.5546875 0 0  0.5625 0 0  0.5703125 0 0  0.578125 0 0  0.5859375 0 0  0.59375 0 0  0.6015625 0 0  0.609375 0 0  0.6171875 0 0  0.625 0 0  0.6328125 0 0  0.640625 0 0  0.6484375 0 0  0.65625 0 0  0.6640625 0 0  0.671875 0 0  0.6796875 0 0  0.6875 0 0  0.6953125 0 0  0.703125 0 0  0.7109375 0 0  0.71875 0 0  0.7265625 0 0  0.734375 0 0  0.7421875 0 0  0.75 0 0  0.7578125 0 0  0.765625 0 0  0.7734375 0 0  0.78125 0 0  0.7890625 0 0  0.796875 0 0  0.8046875 0 0  0.8125 0 0  0.8203125 0 0  0.828125 0 0  0.8359375 0 0  0.84375 0 0  0.8515625 0 0  0.859375 0 0  0.8671875 0 0  0.875 0 0  0.8828125 0 0  0.890625 0 0  0.8984375 0 0  0.90625 0 0  0.9140625 0 0  0.921875 0 0  0.9296875 0 0  0.9375 0 0  0.9453125 0 0  0.953125 0 0  0.9609375 0 0  0.96875 0 0  0.9765625 0 0  0.984375 0 0  0.9921875 0 0  1 0 0  0 0.0078125 0  0.0078125 0.0078125 0  0.015625 0.0078125 0  0.0234375 0.0078125 0  0.03125 0.0078125 0  0.0390625 0.0078125 0  0.046875 0.0078125 0  0.0546875 0.0078125 0  0.0625 0.0078125 0  0.0703125 0.0078125 0  0.078125 0.0078125 0  0.0859375 0.0078125 0  0.09375 0.0078125 0  0.1015625 0.0078125 0  0.109375 0.0078125 0  0.1171875 0.0078125 0  0.125 0.0078125 0  0.1328125 0.0078125 0  0.140625 0.0078125 0  0.1484375 0.0078125 0  0.15625 0.0078125 0  0.1640625 0.0078125 0  0.171875 0.0078125 0  0.1796875 0.0078125 0  0.1875 0.0078125 0  0.1953125 0.0078125 0  0.203125 0.0078125 0  0.2109375 0.0078125 0  0.21875 0.0078125 0  0.2265625 0.0078125 0  0.234375 0.0078125 0  0.2421875 0.0078125 0  0.25 0.0078125 0  0.2578125 0.0078125 0  0.265625 0.0078125 0  0.2734375 0.0078125 0  0.28125 0.0078125 0  0.2890625 0.0078125 0  0.296875 0.0078125 0  0.3046875 0.0078125 0  0.3125 0.0078125 0  0.3203125 0.0078125 0  0.328125 0.0078125 0  0.3359375 0.0078125 0  0.34375 0.0078125 0  0.3515625 0.0078125 0  0.359375 0.0078125 0  0.3671875 0.0078125 0  0.375 0.0078125 0  0.3828125 0.0078125 0  0.390625 0.0078125 0  0.3984375 0.0078125 0  0.40625 0.0078125 0  0.4140625 0.0078125 0  0.421875 0.0078125 0  0.4296875 0.0078125 0  0.4375 0.0078125 0  0.4453125 0.0078125 0  0.453125 0.0078125 0  0.4609375 0.0078125 0  0.46875 0.0078125 0  0.4765625 0.0078125 0  0.484375 0.0078125 0  0.4921875 0.0078125 0  0.5 0.0078125 0  0.5078125 0.0078125 0  0.515625 0.0078125 0  0.5234375 0.0078125 0  0.53125 0.0078125 0  0.5390625 0.0078125 0  0.546875 0.0078125 0  0.5546875 0.0078125 0  0.5625 0.0078125 0  0.5703125 0.0078125 0  0.578125 0.0078125 0  0.5859375 0.0078125 0  0.59375 0.0078125 0  0.6015625 0.0078125 0  0.609375 0.0078125 0  0.6171875 0.0078125 0  0.625 0.0078125 0  0.6328125 0.0078125 0  0.640625 0.0078125 0  0.6484375 0.0078125 0  0.65625 0.0078125 0  0.6640625 0.0078125 0  0.671875 0.0078125 0  0.6796875 0.0078125 0  0.6875 0.0078125 0  0.6953125 0.0078125 0  0.703125 0.0078125 0  0.7109375 0.0078125 0  0.71875 0.0078125 0  0.7265625 0.0078125 0  0.734375 0.0078125 0  0.7421875 0.0078125 0  0.75 0.0078125 0  0.7578125 0.0078125 0  0.765625 0.0078125 0  0.7734375 0.0078125 0  0.78125 0.0078125 0  0.7890625 0.0078125 0  0.796875 0.0078125 0  0.8046875 0.0078125 0  0.8125 0.0078125 0  0.8203125 0.0078125 0  0.828125 0.0078125 0  0.8359375 0.0078125 0  0.84375 0.0078125 0  0.8515625 0.0078125 0  0.859375 0.0078125 0  0.8671875 0.0078125 0  0.875 0.0078125 0  0.8828125 0.0078125 0  0.890625 0.0078125 0  0.8984375 0.0078125 0  0.90625 0.0078125 0  0.9140625 0.0078125 0  0.921875 0.0078125 0  0.9296875 0.0078125 0  0.9375 0.0078125 0  0.9453125 0.0078125 0  0.953125 0.0078125 0  0.9609375 0.0078125 0  0.96875 0.0078125 0  0.9765625 0.0078125 0  0.984375 0.0078125 0  0.9921875 0.0078125 0  1 0.0078125 0  0 0.015625 0  0.0078125 0.015625 0  0.015625 0.015625 0  0.0234375 0.015625 0  0.03125 0.015625 0  0.0390625 0.015625 0  0.046875 0.015625 0  0.0546875 0.015625 0  0.0625 0.015625 0  0.0703125 0.015625 0  0.078125 0.015625 0  0.0859375 0.015625 0  0.09375 0.015625 0  0.1015625 0.015625 0  0.109375 0.015625 0  0.1171875 0.015625 0  0.125 0.015625 0  0.1328125 0.015625 0  0.140625 0.015625 0  0.1484375 0.015625 0  0.15625 0.015625 0  0.1640625 0.015625 0  0.171875 0.015625 0  0.1796875 0.015625 0  0.1875 0.015625 0  0.1953125 0.015625 0  0.203125 0.015625 0  0.2109375 0.015625 0  0.21875 0.015625 0  0.2265625 0.015625 0  0.234375 0.015625 0  0.2421875 0.015625 0  0.25 0.015625 0  0.2578125 0.015625 0  0.265625 0.015625 0  0.2734375 0.015625 0  0.28125 0.015625 0  0.2890625 0.015625 0  0.296875 0.015625 0  0.3046875 0.015625 0  0.3125 0.015625 0  0.3203125 0.015625 0  0.328125 0.015625 0  0.3359375 0.015625 0  0.34375 0.015625 0  0.3515625 0.015625 0  0.359375 0.015625 0  0.3671875 0.015625 0  0.375 0.015625 0  0.3828125 0.015625 0  0.390625 0.015625 0  0.3984375 0.015625 0  0.40625 0.015625 0  0.4140625 0.015625 0  0.421875 0.015625 0  0.4296875 0.015625 0  0.4375 0.015625 0  0.4453125 0.015625 0  0.453125 0.015625 0  0.4609375 0.015625 0  0.46875 0.015625 0  0.4765625 0.015625 0  0.484375 0.015625 0  0.4921875 0.015625 0  0.5 0.015625 0  0.5078125 0.015625 0  0.515625 0.015625 0  0.5234375 0.015625 0  0.53125 0.015625 0  0.5390625 0.015625 0  0.546875 0.015625 0  0.5546875 0.015625 0  0.5625 0.015625 0  0.5703125 0.015625 0  0.578125 0.015625 0  0.5859375 0.015625 0  0.59375 0.015625 0  0.6015625 0.015625 0  0.609375 0.015625 0  0.6171875 0.015625 0  0.625 0.015625 0  0.6328125 0.015625 0  0.640625 0.015625 0  0.6484375 0.015625 0  0.65625 0.015625 0  0.6640625 0.015625 0  0.671875 0.015625 0  0.6796875 0.015625 0  0.6875 0.015625 0  0.6953125 0.015625 0  0.703125 0.015625 0  0.7109375 0.015625 0  0.71875 0.015625 0  0.7265625 0.015625 0  0.734375 0.015625 0  0.7421875 0.015625 0  0.75 0.015625 0  0.7578125 0.015625 0  0.765625 0.015625 0  0.7734375 0.015625 0  0.78125 0.015625 0  0.7890625 0.015625 0  0.796875 0.015625 0  0.8046875 0.015625 0  0.8125 0.015625 0  0.8203125 0.015625 0  0.828125 0.015625 0  0.8359375 0.015625 0  0.84375 0.015625 0  0.8515625 0.015625 0  0.859375 0.015625 0  0.8671875 0.015625 0  0.875 0.015625 0  0.8828125 0.015625 0  0.890625 0.015625 0  0.8984375 0.015625 0  0.90625 0.015625 0  0.9140625 0.015625 0  0.921875 0.015625 0  0.9296875 0.015625 0  0.9375 0.015625 0  0.9453125 0.015625 0  0.953125 0.015625 0  0.9609375 0.015625 0  0.96875 0.015625 0  0.9765625 0.015625 0  0.984375 0.015625 0  0.9921875 0.015625 0  1 0.015625 0  0 0.0234375 0  0.0078125 0.0234375 0  0.015625 0.0234375 0  0.0234375 0.0234375 0  0.03125 0.0234375 0  0.0390625 0.0234375 0  0.046875 0.0234375 0  0.0546875 0.0234375 0  0.0625 0.0234375 0  0.0703125 0.0234375 0  0.078125 0.0234375 0  0.0859375 0.0234375 0  0.09375 0.0234375 0  0.1015625 0.0234375 0  0.109375 0.0234375 0  0.1171875 0.0234375 0  0.125 0.0234375 0  0.1328125 0.0234375 0  0.140625 0.0234375 0  0.1484375 0.0234375 0  0.15625 0.0234375 0  0.1640625 0.0234375 0  0.171875 0.0234375 0  0.1796875 0.0234375 0  0.1875 0.0234375 0  0.1953125 0.0234375 0  0.203125 0.0234375 0  0.2109375 0.0234375 0  0.21875 0.0234375 0  0.2265625 0.0234375 0  0.234375 0.0234375 0  0.2421875 0.0234375 0  0.25 0.0234375 0  0.2578125 0.0234375 0  0.265625 0.0234375 0  0.2734375 0.0234375 0  0.28125 0.0234375 0  0.2890625 0.0234375 0  0.296875 0.0234375 0  0.3046875 0.0234375 0  0.3125 0.0234375 0  0.3203125 0.0234375 0  0.328125 0.0234375 0  0.3359375 0.0234375 0  0.34375 0.0234375 0  0.3515625 0.0234375 0  0.359375 0.0234375 0  0.3671875 0.0234375 0  0.375 0.0234375 0  0.3828125 0.0234375 0  0.390625 0.0234375 0  0.3984375 0.0234375 0  0.40625 0.0234375 0  0.4140625 0.0234375 0  0.421875 0.0234375 0  0.4296875 0.0234375 0  0.4375 0.0234375 0  0.4453125 0.0234375 0  0.453125 0.0234375 0  0.4609375 0.0234375 0  0.46875 0.0234375 0  0.4765625 0.0234375 0  0.484375 0.0234375 0  0.4921875 0.0234375 0  0.5 0.0234375 0  0.5078125 0.0234375 0  0.515625 0.0234375 0  0.5234375 0.0234375 0  0.53125 0.0234375 0  0.5390625 0.0234375 0  0.546875 0.0234375 0  0.5546875 0.0234375 0  0.5625 0.0234375 0  0.5703125 0.0234375 0  0.578125 0.0234375 0  0.5859375 0.0234375 0  0.59375 0.0234375 0  0.6015625 0.0234375 0  0.609375 0.0234375 0  0.6171875 0.0234375 0  0.625 0.0234375 0  0.6328125 0.0234375 0  0.640625 0.0234375 0  0.6484375 0.0234375 0  0.65625 0.0234375 0  0.6640625 0.0234375 0  0.671875 0.0234375 0  0.6796875 0.0234375 0  0.6875 0.0234375 0  0.6953125 0.0234375 0  0.703125 0.0234375 0  0.7109375 0.0234375 0  0.71875 0.0234375 0  0.7265625 0.0234375 0  0.734375 0.0234375 0  0.7421875 0.0234375 0  0.75 0.0234375 0  0.7578125 0.0234375 0  0.765625 0.0234375 0  0.7734375 0.0234375 0  0.78125 0.0234375 0  0.7890625 0.0234375 0  0.796875 0.0234375 0  0.8046875 0.0234375 0  0.8125 0.0234375 0  0.8203125 0.0234375 0  0.828125 0.0234375 0  0.8359375 0.0234375 0  0.84375 0.0234375 0  0.8515625 0.0234375 0  0.859375 0.0234375 0  0.8671
[...]
<PointData  Scalars="v_sol"> 
<DataArray  type="Float64"  Name="v_sol"  format="ascii">-1.5370237565114015e-06  -3.7914307858698080e-06  1.7528156917147224e-06  1.0919498309689439e-05  2.1064116353779754e-05  3.0706790507217384e-05  3.8802795133687088e-05  4.4604223290624667e-05  4.7681050150722123e-05  4.7947211507847247e-05  4.5658015469875132e-05  4.1347428754117438e-05  3.5729939081935365e-05  2.9584255759474824e-05  2.3647134366041906e-05  1.8532948752960802e-05  1.4686931532023374e-05  1.2369296799437401e-05  1.1661588079925635e-05  1.2484819921632225e-05  1.4621625448838036e-05  1.7739485390847579e-05  2.1418221331245619e-05  2.5187254508237755e-05  2.8574764864339044e-05  3.1167240275428340e-05  3.2668609316932779e-05  3.2931653429453815e-05  3.1941066708000477e-05  2.9758037742144752e-05  2.6437634930772971e-05  2.1936527170593357e-05  1.6039308218382010e-05  8.3513613606076409e-06  -1.6336889726176879e-06  -1.4442031601215722e-05  -3.0596122177055199e-05  -5.0605813130453582e-05  -7.4957119951012916e-05  -1.0406773252475962e-04  -1.3826054300671126e-04  -1.7777288743079758e-04  -2.2262313328150438e-04  -2.7262172641311544e-04  -3.2721720328090164e-04  -3.8555156232592978e-04  -4.4648710418554639e-04  -5.0841602262097164e-04  -5.6942046180373550e-04  -6.2737093475926742e-04  -6.8006257488870689e-04  -7.2536809616231671e-04  -7.6136156092607447e-04  -7.8641704109613699e-04  -7.9926661055868290e-04  -7.9902038205448506e-04  -7.8515402788294155e-04  -7.5746385977779485e-04  -7.1602439798031700e-04  -6.6110002656604079e-04  -5.9316994878448603e-04  -5.1271159684874621e-04  -4.2061616368901028e-04  -3.1725118196334159e-04  -2.0420535126000578e-04  -8.2375910587773868e-05  4.9389431120984342e-05  1.8745284244200933e-04  3.2937163792548285e-04  4.7394097680022139e-04  6.1803210446691528e-04  7.5907008986463226e-04  8.9364047069945632e-04  1.0183742607879243e-03  1.1295730472866239e-03  1.2236733481165120e-03  1.2971278936728169e-03  1.3470173644079650e-03  1.3706297796137891e-03  1.3665599537848266e-03  1.3354623470973772e-03  1.2727511796541552e-03  1.1853459368404500e-03  1.0766386243876575e-03  9.4645595755555386e-04  8.0282288967328612e-04  6.4957602664586663e-04  4.9308143136049510e-04  3.3812304481669058e-04  1.8956845322775972e-04  5.0779022895592807e-05  -7.6245218860550166e-05  -1.8794483810624765e-04  -2.8484523079428829e-04  -3.6888840582961671e-04  -4.3866267024533556e-04  -4.9473499428613632e-04  -5.3719030620771001e-04  -5.6511258436051407e-04  -5.7784832381979872e-04  -5.7482212578507746e-04  -5.5609954317319273e-04  -5.2288492188001508e-04  -4.7761583701188154e-04  -4.2381145925147069e-04  -3.6553229207648508e-04  -3.0679804557918572e-04  -2.5095566456080236e-04  -2.0035168880917428e-04  -1.5638627541110563e-04  -1.1952655511071778e-04  -8.9546629366159258e-05  -6.5778424909082331e-05  -4.7335300922887039e-05  -3.3261769985781656e-05  -2.2602957149548586e-05  -1.4486728977607573e-05  -8.1499385270789521e-06  -2.9729636602496329e-06  1.4996550456791054e-06  5.5442417311459252e-06  9.2591431434035031e-06  1.2549557638105127e-05  1.5153716045390621e-05  1.6578973066548761e-05  1.6177205696825927e-05  1.3022800563526302e-05  6.4584694619845294e-06  -1.8214376398109664e-07  6.2004312008022313e-06  2.3299752948757202e-05  -6.4631077618072305e-06  -5.3894130828265399e-05  -1.0580197902284479e-04  -1.5504522320248523e-04  -1.9629905718114021e-04  -2.2582106218865290e-04  -2.4138540725663428e-04  -2.4257056034714336e-04  -2.3069813229445240e-04  -2.0853439851137531e-04  -1.7976333169247209e-04  -1.4838587708897083e-04  -1.1816790328072980e-04  -9.2231187931965852e-05  -7.2821325428123671e-05  -6.1236475076504985e-05  -5.7868346165981373e-05  -6.2300045720215194e-05  -7.3419408531044845e-05  -8.9534709290206240e-05  -1.0850931418711328e-04  -1.2794612473054299e-04  -1.4544128066457207e-04  -1.5889335740953446e-04  -1.6680166717578809e-04  -1.6843544912355124e-04  -1.6377683618711174e-04  -1.5322238591560254e-04  -1.3710297551970985e-04  -1.1519981512335833e-04  -8.6426336280042890e-05  -4.8832562895096754e-05  1.0695438033259443e-07  6.3079256460382685e-05  1.4276061258126709e-04  2.4167918421851448e-04  3.6216727643264884e-04  5.0625229842626309e-04  6.7553390098218206e-04  8.7111070422154146e-04  1.0930503933575390e-03  1.3401967247245465e-03  1.6097993810869362e-03  1.8976218184855998e-03  2.1979260610307679e-03  2.5030785555368315e-03  2.8040796431305693e-03  3.0911065538046091e-03  3.3540811559416520e-03  3.5832542953101371e-03  3.7696793798835241e-03  3.9055886715303498e-03  3.9846405145491075e-03  4.0020336306168542e-03  3.9544869287429368e-03  3.8401096503040033e-03  3.6581975081315101e-03  3.4090076549914447e-03  3.0935550182222219e-03  2.7134791673855572e-03  2.2710732470059653e-03  1.7691451823827187e-03  1.2127836836965469e-03  6.0234755435707580e-04  -6.0874221183080166e-05  -7.6421784373499353e-04  -1.4986102593605706e-03  -2.2545812554593549e-03  -3.0180177939858467e-03  -3.7739143022630581e-03  -4.5038235315217629e-03  -5.1878192378805249e-03  -5.8040541054491142e-03  -6.3302987090577325e-03  -6.7447713960563788e-03  -7.0280350003561103e-03  -7.1639312555526000e-03  -7.1437261812201539e-03  -6.9636038113347707e-03  -6.6182013012555073e-03  -6.1307508043042299e-03  -5.5229200246622130e-03  -4.8109398580078100e-03  -4.0293203775050180e-03  -3.2085878553891035e-03  -2.3804671475039759e-03  -1.5727771682658279e-03  -8.0878943793729089e-04  -1.0554343277741251e-04  5.2783903612530327e-04  1.0804644108219424e-03  1.5528241500015511e-03  1.9563613878672841e-03  2.2896340491081330e-03  2.5517717289739329e-03  2.7453427960936181e-03  2.8677750200354138e-03  2.9156266558909524e-03  2.8869233638469981e-03  2.7826239582239413e-03  2.6089249143647101e-03  2.3778888366191094e-03  2.1065414885320759e-03  1.8145213543530887e-03  1.5212026230665265e-03  1.2428538374443850e-03  9.9103132823767626e-04  7.7245321127807228e-04  5.8938394175739154e-04  4.4068612736943751e-04  3.2297517541885672e-04  2.3178453424292390e-04  1.6233514708330292e-04  1.0986457813058554e-04  6.9980724136023704e-05  3.8862089082615431e-05  1.3397971826638054e-05  -8.6920467427380396e-06  -2.8798288846461633e-05  -4.7385257256168233e-05  -6.4006257420243728e-05  -7.7234600629100058e-05  -8.4770935167023317e-05  -8.2800942621740584e-05  -6.7449955931565632e-05  -3.1205264967199444e-05  4.9253304252899993e-06  1.7742464851301099e-05  2.9399945752379441e-05  -9.0903358863124350e-05  -2.6952027771331901e-04  -4.6617927292658281e-04  -6.5277168902506575e-04  -8.0883032641782102e-04  -9.1990406584174583e-04  -9.7789689106625877e-04  -9.8142629668636632e-04  -9.3548143013175026e-04  -8.5021894471776769e-04  -7.3912370613497781e-04  -6.1692190683422358e-04  -4.9764512688060456e-04  -3.9313208283341588e-04  -3.1209458518553931e-04  -2.5972199534207935e-04  -2.3769548745726659e-04  -2.4444946884608239e-04  -2.7555381398351644e-04  -3.2417076605630664e-04  -3.8162280346823560e-04  -4.3815253670693950e-04  -4.8391941621778135e-04  -5.1013375848703833e-04  -5.1007873223829383e-04  -4.7966774461514745e-04  -4.1719079638070759e-04  -3.2217616343190150e-04  -1.9367559631286107e-04  -2.8568533338407362e-05  1.7930647583728088e-04  4.3907453967499205e-04  7.6173295279098868e-04  1.1586336139508245e-03  1.6399330963639230e-03  2.2141995679524819e-03  2.8881718593232043e-03  3.6656266678561159e-03  4.5460361992941374e-03  5.5232517109145007e-03  6.5848596070428728e-03  7.7113094135967709e-03  8.8757529115836807e-03  1.0044780185186616e-02  1.1179960767071144e-02  1.2240182818977792e-02  1.3184385000607682e-02  1.3974622675199876e-02  1.4578686533793636e-02  1.4971933938662644e-02  1.5138140714546746e-02  1.5069399105932186e-02  1.4765262248146291e-02  1.4231397567745496e-02  1.3478026178937128e-02  1.2518379380599196e-02  1.1367344115730676e-02  1.0040402034372358e-02  8.5529055752884015e-03  6.9197195753434235e-03  5.1550781483039173e-03  3.2730963478297265e-03  1.2860607188161961e-03  -7.8909722437339313e-04  -2.9322006757621626e-03  -5.1277433186162841e-03  -7.3540292489474354e-03  -9.5847219178797436e-03  -1.1790165912901610e-02  -1.3934582236127627e-02  -1.5977940517192705e-02  -1.7875046379152541e-02  -1.9577617222659438e-02  -2.1035397828647284e-02  -2.2199122617116290e-02  -2.3023228531426222e-02  -2.3469834946000641e-02  -2.3511051949850956e-02  -2.3134083217493422e-02  -2.2344779381765129e-02  -2.1157862712048687e-02  -1.9613216037503378e-02  -1.7766146981424008e-02  -1.5676289896841295e-02  -1.3415498770314720e-02  -1.1055088831663651e-02  -8.6638907369819898e-03  -6.3029824425275202e-03  -4.0221107169323795e-03  -1.8607230210191477e-03  1.6021908101978026e-04  2.0261916923490974e-03  3.7194344977969636e-03  5.2403396975371835e-03  6.5894517325960928e-03  7.7519772332878744e-03  8.7071507947102111e-03  9.4265214368867943e-03  9.8771118479671002e-03  1.0031096415990631e-02  9.8757734264615770e-03  9.4227157697845797e-03  8.7117823835415279e-03  7.8077140317325882e-03  6.7898614595212053e-03  5.7387057263871633e-03  4.7236209018626475e-03  3.7951942675561825e-03  2.9831252555048726e-03  2.2985141677282438e-03  1.7387906259260625e-03  1.2924515591874093e-03  9.4294836887143100e-04  6.7205184997306796e-04  4.6191885657007899e-04  2.9640410526698713e-04  1.6205872754895703e-04  4.8712729976385427e-05  -5.0196225173764155e-05  -1.3753251543226452e-04  -2.1250379128674379e-04  -2.7077920047287492e-04  -3.0456681339719707e-04  -3.0282166534349817e-04  -2.5276699362692821e-04  -1.4382044865217080e-04  1.0128633525844899e-06  2.5006216640360793e-05  -3.3028936013378760e-05  -2.9273087146684687e-04  -6.5124296755829348e-04  -1.0398874084985546e-03  -1.4059097417000749e-03  -1.7091600184704202e-03  -1.9216768058565072e-03  -2.0284035789735820e-03  -2.0275631367487018e-03  -1.9295751733108956e-03  -1.7545277380823354e-03  -1.5286137508158193e-03  -1.2802320398867921e-03  -1.0364078229621241e-03  -8.1999307592843583e-04  -6.4785672472124031e-04  -5.3001832823288113e-04  -4.6952109399436533e-04  -4.6279827381445700e-04  -5.0032889454024133e-04  -5.6751621640707217e-04  -6.4585867399328785e-04  -7.1452805278355311e-04  -7.5238291776736233e-04  -7.4020734420933117e-04  -6.6262766703848971e-04  -5.0900147203111995e-04  -2.7272452292984094e-04  5.1099159230195950e-05  4.6899057975653918e-04  9.9208321810174277e-04  1.6372908088488703e-03  2.4256412432161062e-03  3.3797137854067625e-03  4.5208549243485252e-03  5.8659793197818619e-03  7.4240360266599106e-03  9.1938744224225582e-03  1.1162710937658148e-02  1.3303192170351559e-02  1.5571530661658688e-02  1.7907463513775708e-02  2.0236547584411513e-02  2.2474638688630380e-02  2.4534275330252726e-02  2.6332062941520646e-02  2.7795581459497395e-02  2.8868717330246121e-02  2.9514635270321350e-02  2.9716299577396355e-02  2.9474839010028852e-02  2.8806414016294656e-02  2.7738299744195123e-02  2.6304844661578914e-02  2.4543791608679831e-02  2.2493261356762776e-02  2.0189524475266500e-02  1.7665561222840423e-02  1.4950328321937078e-02  1.2068625211827012e-02  9.0414069984441001e-03  5.8865624502601084e-03  2.6195860406405605e-03  -7.4333117949083427e-04  -4.1883035209257825e-03  -7.7022006017522402e-03  -1.1263807272562640e-02  -1.4848337610828419e-02  -1.8425409523237214e-02  -2.1956432341955868e-02  -2.5395181496012637e-02  -2.8686239937314596e-02  -3.1766266495498845e-02  -3.4564627620805581e-02  -3.7006281538130611e-02  -3.9014995194943447e-02  -4.0518281175329088e-02  -4.1452594232108737e-02  -4.1769528653092754e-02  -4.1440383090667735e-02  -4.0460669334539526e-02  -3.8854752647104987e-02  -3.6670126676379221e-02  -3.3978859135824484e-02  -3.0872102397520942e-02  -2.7449659323135856e-02  -2.3815799962025885e-02  -2.0069472712025204e-02  -1.6298515876510111e-02  -1.2575502530075864e-02  -8.9536209404476198e-03  -5.4717296748031585e-03  -2.1482931919076915e-03  1.0192289129253974e-03  4.0200015724859523e-03  6.8376513752558873e-03  9.4599285830624779e-03  1.1850748624578510e-02  1.3947152487977441e-02  1.5666125810730288e-02  1.6912586735647491e-02  1.7599012018666017e-02  1.7669663212336571e-02  1.7122687904961503e-02  1.6021401225446433e-02  1.4488513327889354e-02  1.2683997749556175e-02  1.0774533012918830e-02  8.9053769087758007e-03  7.1829427638046162e-03  5.6702476344323762e-03  4.3917082397868677e-03  3.3430393572353389e-03  2.5020921221869134e-03  1.8371695539054144e-03  1.3134187007839274e-03  8.9759987637648203e-04  5.6091871879272194e-04  2.8085109757396923e-04  4.2067308968385018e-05  -1.6331210990556713e-04  -3.3589154864934015e-04  -4.6943370420991760e-04  -5.5144378082926245e-04  -5.6419140339552252e-04  -4.8705390608260943e-04  -3.0234027351778281e-04  -8.2723107733091810e-06  2.9536366761344605e-05  -1.7023404797539843e-04  -6.2137045189472400e-04  -1.2023223344069867e-03  -1.8173033123337812e-03  -2.3877036020764483e-03  -2.8519841040707062e-03  -3.1678240806462662e-03  -3.3138019631231944e-03  -3.2896137463823590e-03  -3.1137854567937790e-03  -2.8192274666219040e-03  -2.4474510799566093e-03  -2.0425346601737802e-03  -1.6457747503853702e-03  -1.2916026835592094e-03  -1.0049577316732009e-03  -7.9999822321936737e-04  -6.7984537039782428e-04  -6.3701876287912309e-04  -6.5433245378510941e-04  -7.0621854513350170e-04  -7.6059994979917305e-04  -7.8150351092179534e-04  -7.3237905365658939e-04  -5.7966183640803060e-04  -2.9564195950655648e-04  1.4050202550464861e-04  7.4446384007736716e-04  1.5309645414108830e-03  2.5181170668776977e-03  3.7304160857546055e-03  5.1995032567448479e-03  6.9606276625532376e-03  9.0445103521744879e-03  1.1470223712371381e-02  1.4240424490426659e-02  1.7336214617764190e-02  2.0712287162127981e-02  2.4294313213523603e-02  2.7979705304239735e-02  3.1642213979966166e-02  3.5141282257290449e-02  3.8334796049567472e-02  4.1092692494896249e-02  4.3308743422248393e-02  4.4908374296110574e-02  4.5851645597296618e-02  4.6131667763776682e-02  4.5769578739255259e-02  4.4807569359525623e-02  4.3301384349241724e-02  4.1313381517257393e-02  3.8906818944087471e-02  3.6141638206621300e-02  3.3071722120072838e-02  2.9743424720016773e-02  2.6195100170285986e-02  2.2457353959131881e-02  1.8553785013476824e-02  1.4502035298272264e-02  1.0315054560221412e-02  6.0024104890917876e-03  1.5720024136354220e-03  -2.9696941088331306e-03  -7.6141106857440096e-03  -1.2347399703868190e-02  -1.7152587246717668e-02  -2.2005676765253054e-02  -2.6873685963009562e-02  -3.1713540534866073e-02  -3.6469859463810955e-02  -4.1074567249131354e-02  -4.5446273856494974e-02  -4.9491646952990465e-02  -5.3107636702073947e-02  -5.6185927722608754e-02  -5.8618827130295488e-02  -6.0307071214483969e-02  -6.1168365513097497e-02  -6.1146464055498881e-02  -6.0218671203469160e-02  -5.8400715111690919e-02  -5.5749449235630008e-02  -5.2358307271536481e-02  -4.8350860581587198e-02  -4.3870434285425683e-02  -3.9066432459131592e-02  -3.4082621827922474e-02  -2.9045336431589217e-02  -2.4055781806470344e-02  -1.9186112504260663e-02  -1.4477027063639045e-02  -9.9444414610094425e-03  -5.5867831172613817e-03  -1.3751231571450791e-03  2.7185399351325585e-03  6.6911227779824483e-03  1.0521092079383404e-02  1.4153200108069610e-02  1.7480770481693452e-02  2.0353543538691090e-02  2.2594423124591315e-02  2.4032034432341347e-02  2.4543720793136402e-02  2.4095709181546580e-02  2.2764913354910384e-02  2.0730988756687860e-02  1.8239580910239611e-02  1.5550783006355222e-02  1.2892039951530380e-02  1.0429378008389075e-02  8.2602750021235002e-03  6.4223931193692404e-03  4.9092453152974041e-03  3.6871791880641052e-03  2.7093735243149696e-03  1.9257598456888241e-03  1.2902697595025628e-03  7.6519139710864374e-04  3.2342552354586482e-04  -5.0695047486466421e-05  -3.6162552841130150e-04  -6.0338723332799445e-04  -7.6069914246011227e-04  -8.1044870655790665e-04  -7.2394072571130372e-04  -4.7046855084681622e-04  -1.8563785808735734e-05  3.2819261726263335e-05  -3.7995652863837833e-04  -1.0791999191717111e-03  -1.9259562131600618e-03  -2.7975504475614504e-03  -3.5883660308067950e-03  -4.2146802914092502e-03  -4.6203263935745602e-03  -4.7797432466534576e-03  -4.6977434711887736e-03  -4.4052783529894999e-03  -3.9521891507867503e-03  -3.3984770305808872e-03  -2.8057371540576260e-03  -2.2299608197335376e-03  -1.7163269656623849e-03  -1.2960379666926134e-03  -9.8485232692948569e-04  -7.8283580166011368e-04  -6.7490986624209163e-04  -6.3199018259103108e-04  -6.1278554888834495e-04  -5.6657898084443647e-04  -4.3719734078740091e-04  -1.6798627110233816e-04  2.9303509591413430e-04  9.8965625955552703e-04  1.9571069813170586e-03  3.2246167319389708e-03  4.8211058683585058e-03  6.7816917599484447e-03  9.1480993808624785e-03  1.1961874460862167e-02  1.5255264204903671e-02  1.9040122530205233e-02  2.3295985061983420e-02  2.7961809714286644e-02  3.2932179342640332e-02  3.8058366782697743e-02  4.3156603227997178e-02  4.8023920610722533e-02  5.2458934883001546e-02  5.6283155176776928e-02  5.9358150489440493e-02  6.1595413432145786e-02  6.2957988474611093e-02  6.3455071845915187e-02  6.3132033093103265e-02  6.2058607310851485e-02  6.0317565370244131e-02  5.7995327513162026e-02  5.5175139046981368e-02  5.1932767838625334e-02  4.8334292100801278e-02  4.4435404534373002e-02  4.0281684037350711e-02  3.5909402934956938e-02  3.1346576738933124e-02  2.6614088361708799e-02  2.1726810695858599e-02  1.6694717009339062e-02  1.1523983098842444e-02  6.2181716081466951e-03  7.7929327615252936e-04  -4.7903160530382268e-03  -1.0486609931599711e-02  -1.6303140321131088e-02  -2.2227754105332058e-02  -2.8240773036307204e-02  -3.4312760546954903e-02  -4.0401782806895721e-02  -4.6451316063093717e-02  -5.2387975884953496e-02  -5.8120379698669518e-02  -6.3538790342324139e-02  -6.8516706482225423e-02  -7.2914384772327576e-02  -7.6585120040958229e-02  -7.9384070741311569e-02  -8.1179645421109753e-02  -8.1866262166844700e-02  -8.1377383016500979e-02  -7.9696511819731336e-02  -7.6863711477457200e-02  -7.2977207886129256e-02  -6.8186903819516642e-02  -6.2681744416294413e-02  -5.6672291331079719e-02  -5.0370291071262896e-02  -4.3969729262531801e-02  -3.7630954861426438e-02  -3.1470634578278138e-02  -2.5557833569991705e-02  -1.9915265298076891e-02  -1.4525638052198555e-02  -9.3481871361009976e-03  -4.3218376026631766e-03  6.2358298052709476e-04  5.5235356564607204e-03  1.0364871968480628e-02  1.5079323412951692e-02  1.9522731302169440e-02  2.3479063210939240e-02  2.6686518751798560e-02  2.8885473686165591e-02  2.9882244482663408e-02  2.9608623785998080e-02  2.8153534994653728e-02  2.5750767619860782e-02  2.2725586762176793e-02  1.9421901727626808e-02  1.6137807550711352e-02  1.3088143842025401e-02  1.0396627456486099e-02  8.1090253384936278e-03  6.2150687019882512e-03  4.6709064066831471e-03  3.4179535434565532e-03  2.3961624866097484e-03  1.5529098254746586e-03  8.4809768502172123e-04  2.5624767550853239e-04  -2.3326261328645667e-04  -6.1709584381089205e-04  -8.7936406223848964e-04  -9.9308255744670463e-04  -9.2163246682719173e-04  -6.1985852501260624e-04  -2.8522773498374352e-05  3.5941352790348679e-05  -6.6033622649386248e-04  -1.6696962411523709e-03  -2.8302310636536248e-03  -3.9891261293421064e-03  -5.0112422668211719e-03  -5.7898646403728845e-03  -6.2566183479168371e-03  -6.3859727790942311e-03  -6.1938192034855805e-03  -5.7300284807663580e-03  -5.0671101375966664e-03  -4.2875487726810983e-03  -3.4722183567189742e-03  -2.6913745802508195e-03  -1.9986792354282305e-03  -1.4279305925559173e-03  -9.9180466360896270e-04  -6.8185232593138295e-04  -4.6928061236529788e-04  -3.0646196237816485e-04  -1.2947348333378062e-04  1.3784861402617052e-04  5.7794664319357335e-04  1.2724244571130296e-03  2.2955245028790663e-03  3.7096141116387624e-03  5.5660089369669059e-03  7.9113741224901071e-03  1.0792330688535513e-02  1.4255538614745523e-02  1.8342639542876168e-02  2.3076091505816528e-02  2.8440368136438323e-02  3.4366853252618922e-02  4.0725136797472361e-02  4.7323217589030582e-02  5.3919339938148111e-02  6.024497711331