<?xml version="1.0"?>
<VTKFile type="UnstructuredGrid"  version="0.1"  >
<UnstructuredGrid>
<Piece  NumberOfPoints="25" NumberOfCells="16">
<Points>
<DataArray  type="Float64"  NumberOfComponents="3"  format="ascii">0 0 0  0.25 0 0  0.5 0 0  0.75 0 0  1 0 0  0 0.25 0  0.25 0.25 0  0.5 0.25 0  0.75 0.25 0  1 0.25 0  0 0.5 0  0.25 0.5 0  0.5 0.5 0  0.75 0.5 0  1 0.5 0  0 0.75 0  0.25 0.75 0  0.5 0.75 0  0.75 0.75 0  1 0.75 0  0 1 0  0.25 1 0  0.5 1 0  0.75 1 0  1 1 0  </DataArray>
</Points>
<Cells>
<DataArray  type="UInt32"  Name="connectivity"  format="ascii">0 1 6 5  1 2 7 6  2 3 8 7  3 4 9 8  5 6 11 10  6 7 12 11  7 8 13 12  8 9 14 13  10 11 16 15  11 12 17 16  12 13 18 17  13 14 19 18  15 16 21 20  16 17 22 21  17 18 23 22  18 19 24 23  </DataArray>
<DataArray  type="UInt32"  Name="offsets"  format="ascii">4 8 12 16 20 24 28 32 36 40 44 48 52 56 60 64 </DataArray>
<DataArray  type="UInt8"  Name="types"  format="ascii">9 9 9 9 9 9 9 9 9 9 9 9 9 9 9 9 </DataArray>
</Cells>
<PointData  Scalars="u_sol"> 
<DataArray  type="Float64"  Name="u_sol"  format="ascii">-2.0599841277224588e-18  2.7647155398380371e-18  -6.9117888495950908e-19  2.2649074158446256e-18  -2.1684043449710089e-18  -1.9403396079712395e-03  8.2696511682591543e-03  2.2952618022195021e-02  1.2132675962889297e-02  -3.1602421745910670e-03  -4.0633833348351252e-07  7.4345915231782689e-07  -5.8674129919701612e-06  -5.9589374053214557e-06  1.7102078690969715e-06  1.9407459463188102e-03  -8.2703946275382873e-03  -2.2946750609133950e-02  -1.2126717025274495e-02  3.1585319667027105e-03  -2.4936649967166587e-18  6.0715321659188233e-18  6.4296749471912411e-19  -8.6736173798840335e-19  6.5052130349130237e-19  </DataArray> 
</PointData> 
</Piece>
</UnstructuredGrid>
</VTKFile>