<?xml version="1.0"?>
<VTKFile type="UnstructuredGrid"  version="0.1"  >
<UnstructuredGrid>
<Piece  NumberOfPoints="25" NumberOfCells="16">
<Points>
<DataArray  type="Float64"  NumberOfComponents="3"  format="ascii">0 0 0  0.25 0 0  0.5 0 0  0.75 0 0  1 0 0  0 0.25 0  0.25 0.25 0  0.5 0.25 0  0.75 0.25 0  1 0.25 0  0 0.5 0  0.25 0.5 0  0.5 0.5 0  0.75 0.5 0  1 0.5 0  0 0.75 0  0.25 0.75 0  0.5 0.75 0  0.75 0.75 0  1 0.75 0  0 1 0  0.25 1 0  0.5 1 0  0.75 1 0  1 1 0  </DataArray>
</Points>
<Cells>
<DataArray  type="UInt32"  Name="connectivity"  format="ascii">0 1 6 5  1 2 7 6  2 3 8 7  3 4 9 8  5 6 11 10  6 7 12 11  7 8 13 12  8 9 14 13  10 11 16 15  11 12 17 16  12 13 18 17  13 14 19 18  15 16 21 20  16 17 22 21  17 18 23 22  18 19 24 23  </DataArray>
<DataArray  type="UInt32"  Name="offsets"  format="ascii">4 8 12 16 20 24 28 32 36 40 44 48 52 56 60 64 </DataArray>
<DataArray  type="UInt8"  Name="types"  format="ascii">9 9 9 9 9 9 9 9 9 9 9 9 9 9 9 9 </DataArray>
</Cells>
<PointData  Scalars="v_sol"> 
<DataArray  type="Float64"  Name="v_sol"  format="ascii">9.6296497219361814e-35  2.1944983365163504e-03  7.1205077800298201e-04  -2.9065491138931189e-03  -8.6736173798840355e-19  1.7347234759768075e-18  -8.7779686246244933e-03  -2.8473212189644350e-03  1.1625289840331680e-02  -1.7347234759768071e-18  -2.1684043449710089e-19  -1.9750218045242268e-02  -6.3989325455222502e-03  2.6149150584337384e-02  2.8189256484623115e-18  -1.7931768832324975e-18  -8.7777807482605948e-03  -2.8406188224402089e-03  1.1618399567814757e-02  -2.7901611010290215e-18  1.5178830414797058e-18  2.1944390071886011e-03  7.0993423166272910e-04  -2.9043732382553382e-03  -1.3010426069826049e-18  </DataArray> 
</PointData> 
</Piece>
</UnstructuredGrid>
</VTKFile>