<?xml version="1.0"?>
<VTKFile type="UnstructuredGrid"  version="0.1"  >
<UnstructuredGrid>
<Piece  NumberOfPoints="1089" NumberOfCells="1024">
<Points>
<DataArray  type="Float64"  NumberOfComponents="3"  format="ascii">0 0 0  0.03125 0 0  0.0625 0 0  0.09375 0 0  0.125 0 0  0.15625 0 0  0.1875 0 0  0.21875 0 0  0.25 0 0  0.28125 0 0  0.3125 0 0  0.34375 0 0  0.375 0 0  0.40625 0 0  0.4375 0 0  0.46875 0 0  0.5 0 0  0.53125 0 0  0.5625 0 0  0.59375 0 0  0.625 0 0  0.65625 0 0  0.6875 0 0  0.71875 0 0  0.75 0 0  0.78125 0 0  0.8125 0 0  0.84375 0 0  0.875 0 0  0.90625 0 0  0.9375 0 0  0.96875 0 0  1 0 0  0 0.03125 0  0.03125 0.03125 0  0.0625 0.03125 0  0.09375 0.03125 0  0.125 0.03125 0  0.15625 0.03125 0  0.1875 0.03125 0  0.21875 0.03125 0  0.25 0.03125 0  0.28125 0.03125 0  0.3125 0.03125 0  0.34375 0.03125 0  0.375 0.03125 0  0.40625 0.03125 0  0.4375 0.03125 0  0.46875 0.03125 0  0.5 0.03125 0  0.53125 0.03125 0  0.5625 0.03125 0  0.59375 0.03125 0  0.625 0.03125 0  0.65625 0.03125 0  0.6875 0.03125 0  0.71875 0.03125 0  0.75 0.03125 0  0.78125 0.03125 0  0.8125 0.03125 0  0.84375 0.03125 0  0.875 0.03125 0  0.90625 0.03125 0  0.9375 0.03125 0  0.96875 0.03125 0  1 0.03125 0  0 0.0625 0  0.03125 0.0625 0  0.0625 0.0625 0  0.09375 0.0625 0  0.125 0.0625 0  0.15625 0.0625 0  0.1875 0.0625 0  0.21875 0.0625 0  0.25 0.0625 0  0.28125 0.0625 0  0.3125 0.0625 0  0.34375 0.0625 0  0.375 0.0625 0  0.40625 0.0625 0  0.4375 0.0625 0  0.46875 0.0625 0  0.5 0.0625 0  0.53125 0.0625 0  0.5625 0.0625 0  0.59375 0.0625 0  0.625 0.0625 0  0.65625 0.0625 0  0.6875 0.0625 0  0.71875 0.0625 0  0.75 0.0625 0  0.78125 0.0625 0  0.8125 0.0625 0  0.84375 0.0625 0  0.875 0.0625 0  0.90625 0.0625 0  0.9375 0.0625 0  0.96875 0.0625 0  1 0.0625 0  0 0.09375 0  0.03125 0.09375 0  0.0625 0.09375 0  0.09375 0.09375 0  0.125 0.09375 0  0.15625 0.09375 0  0.1875 0.09375 0  0.21875 0.09375 0  0.25 0.09375 0  0.28125 0.09375 0  0.3125 0.09375 0  0.34375 0.09375 0  0.375 0.09375 0  0.40625 0.09375 0  0.4375 0.09375 0  0.46875 0.09375 0  0.5 0.09375 0  0.53125 0.09375 0  0.5625 0.09375 0  0.59375 0.09375 0  0.625 0.09375 0  0.65625 0.09375 0  0.6875 0.09375 0  0.71875 0.09375 0  0.75 0.09375 0  0.78125 0.09375 0  0.8125 0.09375 0  0.84375 0.09375 0  0.875 0.09375 0  0.90625 0.09375 0  0.9375 0.09375 0  0.96875 0.09375 0  1 0.09375 0  0 0.125 0  0.03125 0.125 0  0.0625 0.125 0  0.09375 0.125 0  0.125 0.125 0  0.15625 0.125 0  0.1875 0.125 0  0.21875 0.125 0  0.25 0.125 0  0.28125 0.125 0  0.3125 0.125 0  0.34375 0.125 0  0.375 0.125 0  0.40625 0.125 0  0.4375 0.125 0  0.46875 0.125 0  0.5 0.125 0  0.53125 0.125 0  0.5625 0.125 0  0.59375 0.125 0  0.625 0.125 0  0.65625 0.125 0  0.6875 0.125 0  0.71875 0.125 0  0.75 0.125 0  0.78125 0.125 0  0.8125 0.125 0  0.84375 0.125 0  0.875 0.125 0  0.90625 0.125 0  0.9375 0.125 0  0.96875 0.125 0  1 0.125 0  0 0.15625 0  0.03125 0.15625 0  0.0625 0.15625 0  0.09375 0.15625 0  0.125 0.15625 0  0.15625 0.15625 0  0.1875 0.15625 0  0.21875 0.15625 0  0.25 0.15625 0  0.28125 0.15625 0  0.3125 0.15625 0  0.34375 0.15625 0  0.375 0.15625 0  0.40625 0.15625 0  0.4375 0.15625 0  0.46875 0.15625 0  0.5 0.15625 0  0.53125 0.15625 0  0.5625 0.15625 0  0.59375 0.15625 0  0.625 0.15625 0  0.65625 0.15625 0  0.6875 0.15625 0  0.71875 0.15625 0  0.75 0.15625 0  0.78125 0.15625 0  0.8125 0.15625 0  0.84375 0.15625 0  0.875 0.15625 0  0.90625 0.15625 0  0.9375 0.15625 0  0.96875 0.15625 0  1 0.15625 0  0 0.1875 0  0.03125 0.1875 0  0.0625 0.1875 0  0.09375 0.1875 0  0.125 0.1875 0  0.15625 0.1875 0  0.1875 0.1875 0  0.21875 0.1875 0  0.25 0.1875 0  0.28125 0.1875 0  0.3125 0.1875 0  0.34375 0.1875 0  0.375 0.1875 0  0.40625 0.1875 0  0.4375 0.1875 0  0.46875 0.1875 0  0.5 0.1875 0  0.53125 0.1875 0  0.5625 0.1875 0  0.59375 0.1875 0  0.625 0.1875 0  0.65625 0.1875 0  0.6875 0.1875 0  0.71875 0.1875 0  0.75 0.1875 0  0.78125 0.1875 0  0.8125 0.1875 0  0.84375 0.1875 0  0.875 0.1875 0  0.90625 0.1875 0  0.9375 0.1875 0  0.96875 0.1875 0  1 0.1875 0  0 0.21875 0  0.03125 0.21875 0  0.0625 0.21875 0  0.09375 0.21875 0  0.125 0.21875 0  0.15625 0.21875 0  0.1875 0.21875 0  0.21875 0.21875 0  0.25 0.21875 0  0.28125 0.21875 0  0.3125 0.21875 0  0.34375 0.21875 0  0.375 0.21875 0  0.40625 0.21875 0  0.4375 0.21875 0  0.46875 0.21875 0  0.5 0.21875 0  0.53125 0.21875 0  0.5625 0.21875 0  0.59375 0.21875 0  0.625 0.21875 0  0.65625 0.21875 0  0.6875 0.21875 0  0.71875 0.21875 0  0.75 0.21875 0  0.78125 0.21875 0  0.8125 0.21875 0  0.84375 0.21875 0  0.875 0.21875 0  0.90625 0.21875 0  0.9375 0.21875 0  0.96875 0.21875 0  1 0.21875 0  0 0.25 0  0.03125 0.25 0  0.0625 0.25 0  0.09375 0.25 0  0.125 0.25 0  0.15625 0.25 0  0.1875 0.25 0  0.21875 0.25 0  0.25 0.25 0  0.28125 0.25 0  0.3125 0.25 0  0.34375 0.25 0  0.375 0.25 0  0.40625 0.25 0  0.4375 0.25 0  0.46875 0.25 0  0.5 0.25 0  0.53125 0.25 0  0.5625 0.25 0  0.59375 0.25 0  0.625 0.25 0  0.65625 0.25 0  0.6875 0.25 0  0.71875 0.25 0  0.75 0.25 0  0.78125 0.25 0  0.8125 0.25 0  0.84375 0.25 0  0.875 0.25 0  0.90625 0.25 0  0.9375 0.25 0  0.96875 0.25 0  1 0.25 0  0 0.28125 0  0.03125 0.28125 0  0.0625 0.28125 0  0.09375 0.28125 0  0.125 0.28125 0  0.15625 0.28125 0  0.1875 0.28125 0  0.21875 0.28125 0  0.25 0.28125 0  0.28125 0.28125 0  0.3125 0.28125 0  0.34375 0.28125 0  0.375 0.28125 0  0.40625 0.28125 0  0.4375 0.28125 0  0.46875 0.28125 0  0.5 0.28125 0  0.53125 0.28125 0  0.5625 0.28125 0  0.59375 0.28125 0  0.625 0.28125 0  0.65625 0.28125 0  0.6875 0.28125 0  0.71875 0.28125 0  0.75 0.28125 0  0.78125 0.28125 0  0.8125 0.28125 0  0.84375 0.28125 0  0.875 0.28125 0  0.90625 0.28125 0  0.9375 0.28125 0  0.96875 0.28125 0  1 0.28125 0  0 0.3125 0  0.03125 0.3125 0  0.0625 0.3125 0  0.09375 0.3125 0  0.125 0.3125 0  0.15625 0.3125 0  0.1875 0.3125 0  0.21875 0.3125 0  0.25 0.3125 0  0.28125 0.3125 0  0.3125 0.3125 0  0.34375 0.3125 0  0.375 0.3125 0  0.40625 0.3125 0  0.4375 0.3125 0  0.46875 0.3125 0  0.5 0.3125 0  0.53125 0.3125 0  0.5625 0.3125 0  0.59375 0.3125 0  0.625 0.3125 0  0.65625 0.3125 0  0.6875 0.3125 0  0.71875 0.3125 0  0.75 0.3125 0  0.78125 0.3125 0  0.8125 0.3125 0  0.84375 0.3125 0  0.875 0.3125 0  0.90625 0.3125 0  0.9375 0.3125 0  0.96875 0.3125 0  1 0.3125 0  0 0.34375 0  0.03125 0.34375 0  0.0625 0.34375 0  0.09375 0.34375 0  0.125 0.34375 0  0.15625 0.34375 0  0.1875 0.34375 0  0.21875 0.34375 0  0.25 0.34375 0  0.28125 0.34375 0  0.3125 0.34375 0  0.34375 0.34375 0  0.375 0.34375 0  0.40625 0.34375 0  0.4375 0.34375 0  0.46875 0.34375 0  0.5 0.34375 0  0.53125 0.34375 0  0.5625 0.34375 0  0.59375 0.34375 0  0.625 0.34375 0  0.65625 0.34375 0  0.6875 0.34375 0  0.71875 0.34375 0  0.75 0.34375 0  0.78125 0.34375 0  0.8125 0.34375 0  0.84375 0.34375 0  0.875 0.34375 0  0.90625 0.34375 0  0.9375 0.34375 0  0.96875 0.34375 0  1 0.34375 0  0 0.375 0  0.03125 0.375 0  0.0625 0.375 0  0.09375 0.375 0  0.125 0.375 0  0.15625 0.375 0  0.1875 0.375 0  0.21875 0.375 0  0.25 0.375 0  0.28125 0.375 0  0.3125 0.375 0  0.34375 0.375 0  0.375 0.375 0  0.40625 0.375 0  0.4375 0.375 0  0.46875 0.375 0  0.5 0.375 0  0.53125 0.375 0  0.5625 0.375 0  0.59375 0.375 0  0.625 0.375 0  0.65625 0.375 0  0.6875 0.375 0  0.71875 0.375 0  0.75 0.375 0  0.78125 0.375 0  0.8125 0.375 0  0.84375 0.375 0  0.875 0.375 0  0.90625 0.375 0  0.9375 0.375 0  0.96875 0.375 0  1 0.375 0  0 0.40625 0  0.03125 0.40625 0  0.0625 0.40625 0  0.09375 0.40625 0  0.125 0.40625 0  0.15625 0.40625 0  0.1875 0.40625 0  0.21875 0.40625 0  0.25 0.40625 0  0.28125 0.40625 0  0.3125 0.40625 0  0.34375 0.40625 0  0.375 0.40625 0  0.40625 0.40625 0  0.4375 0.40625 0  0.46875 0.40625 0  0.5 0.40625 0  0.53125 0.40625 0  0.5625 0.40625 0  0.59375 0.40625 0  0.625 0.40625 0  0.65625 0.40625 0  0.6875 0.40625 0  0.71875 0.40625 0  0.75 0.40625 0  0.78125 0.40625 0  0.8125 0.40625 0  0.84375 0.40625 0  0.875 0.40625 0  0.90625 0.40625 0  0.9375 0.40625 0  0.96875 0.40625 0  1 0.40625 0  0 0.4375 0  0.03125 0.4375 0  0.0625 0.4375 0  0.09375 0.4375 0  0.125 0.4375 0  0.15625 0.4375 0  0.1875 0.4375 0  0.21875 0.4375 0  0.25 0.4375 0  0.28125 0.4375 0  0.3125 0.4375 0  0.34375 0.4375 0  0.375 0.4375 0  0.40625 0.4375 0  0.4375 0.4375 0  0.46875 0.4375 0  0.5 0.4375 0  0.53125 0.4375 0  0.5625 0.4375 0  0.59375 0.4375 0  0.625 0.4375 0  0.65625 0.4375 0  0.6875 0.4375 0  0.71875 0.4375 0  0.75 0.4375 0  0.78125 0.4375 0  0.8125 0.4375 0  0.84375 0.4375 0  0.875 0.4375 0  0.90625 0.4375 0  0.9375 0.4375 0  0.96875 0.4375 0  1 0.4375 0  0 0.46875 0  0.03125 0.46875 0  0.0625 0.46875 0  0.09375 0.46875 0  0.125 0.46875 0  0.15625 0.46875 0  0.1875 0.46875 0  0.21875 0.46875 0  0.25 0.46875 0  0.28125 0.46875 0  0.3125 0.46875 0  0.34375 0.46875 0  0.375 0.46875 0  0.40625 0.46875 0  0.4375 0.46875 0  0.46875 0.46875 0  0.5 0.46875 0  0.53125 0.46875 0  0.5625 0.46875 0  0.59375 0.46875 0  0.625 0.46875 0  0.65625 0.46875 0  0.6875 0.46875 0  0.71875 0.46875 0  0.75 0.46875 0  0.78125 0.46875 0  0.8125 0.46875 0  0.84375 0.46875 0  0.875 0.46875 0  0.90625 0.46875 0  0.9375 0.46875 0  0.96875 0.46875 0  1 0.46875 0  0 0.5 0  0.03125 0.5 0  0.0625 0.5 0  0.09375 0.5 0  0.125 0.5 0  0.15625 0.5 0  0.1875 0.5 0  0.21875 0.5 0  0.25 0.5 0  0.28125 0.5 0  0.3125 0.5 0  0.34375 0.5 0  0.375 0.5 0  0.40625 0.5 0  0.4375 0.5 0  0.46875 0.5 0  0.5 0.5 0  0.53125 0.5 0  0.5625 0.5 0  0.59375 0.5 0  0.625 0.5 0  0.65625 0.5 0  0.6875 0.5 0  0.71875 0.5 0  0.75 0.5 0  0.78125 0.5 0  0.8125 0.5 0  0.84375 0.5 0  0.875 0.5 0  0.90625 0.5 0  0.9375 0.5 0  0.96875 0.5 0  1 0.5 0  0 0.53125 0  0.03125 0.53125 0  0.0625 0.53125 0  0.09375 0.53125 0  0.125 0.53125 0  0.15625 0.53125 0  0.1875 0.53125 0  0.21875 0.53125 0  0.25 0.53125 0  0.28125 0.53125 0  0.3125 0.53125 0  0.34375 0.53125 0  0.375 0.53125 0  0.40625 0.53125 0  0.4375 0.53125 0  0.46875 0.53125 0  0.5 0.53125 0  0.53125 0.53125 0  0.5625 0.53125 0  0.59375 0.53125 0  0.625 0.53125 0  0.65625 0.53125 0  0.6875 0.53125 0  0.71875 0.53125 0  0.75 0.53125 0  0.78125 0.531
[...]
<PointData  Scalars="u_sol"> 
<DataArray  type="Float64"  Name="u_sol"  format="ascii">-1.5271217021375994e-07  7.6483294348920794e-07  3.3797724415056750e-06  7.4939264417944526e-06  1.2908309955699042e-05  1.9413022264429031e-05  2.6791335547944165e-05  3.4820224618654367e-05  4.3272113126826864e-05  5.1916580874046599e-05  6.0522394171923374e-05  6.8859789292998987e-05  7.6703056857004633e-05  8.3833445330708367e-05  9.0042411920069902e-05  9.5135248651330120e-05  9.8935113943605894e-05  1.0128750181441288e-04  1.0206518302515083e-04  1.0117365470222406e-04  9.8557137362972666e-05  9.4205160742913795e-05  8.8159782721784110e-05  8.0523487380488196e-05  7.1467815580985734e-05  6.1242767470456443e-05  5.0187085650435101e-05  3.8739279727842041e-05  2.7450208000824131e-05  1.6994460122642980e-05  8.1911743793884213e-06  1.9950066969844464e-06  -3.9647316556030228e-07  -9.1860550542952950e-06  4.6006778847819280e-05  2.0330244837824636e-04  4.5077958472377689e-04  7.7646895778538973e-04  1.1677444041675242e-03  1.6115692073404679e-03  2.0945278171283161e-03  2.6029309232378298e-03  3.1229181492022796e-03  3.6405801834182927e-03  4.1420961358208724e-03  4.6138889950302292e-03  5.0428002820612989e-03  5.4162856002707583e-03  5.7226327541057762e-03  5.9512042591113598e-03  6.0927061765353591e-03  6.1394853362437838e-03  6.0858571457152282e-03  5.9284663276531228e-03  5.6666830743870291e-03  5.3030372885104681e-03  4.8436936693474139e-03  4.2989708791454258e-03  3.6839071100264170e-03  3.0188786842203453e-03  2.3302631927882259e-03  1.6511961186622248e-03  1.0222567089384728e-03  4.9271507908903026e-04  1.2000431958668952e-04  -2.3848643051860627e-05  -1.6465307144057457e-05  8.2463662221845976e-05  3.6440420677760982e-04  8.0798815695652410e-04  1.3917615882968934e-03  2.0930930607133869e-03  2.8886152525536717e-03  3.7542818111951839e-03  4.6655556896283579e-03  5.5975932177133488e-03  6.5254630125564216e-03  7.4243921799935098e-03  8.2700449596751734e-03  9.0388357786281709e-03  9.7082797597384581e-03  1.0257383683116333e-02  1.0667080666923094e-02  1.0920712033007011e-02  1.1004560056391348e-02  1.0908435537971283e-02  1.0626324399296212e-02  1.0157097759254760e-02  9.5052902777016043e-03  8.6819517119544470e-03  7.7055774838914893e-03  6.6031224146841476e-03  5.4111095227688567e-03  4.1768186426293444e-03  2.9596426209320035e-03  1.8323166980851035e-03  8.8315370956803716e-04  2.1509846140492281e-04  -4.2746842894119662e-05  -2.2112825080832050e-05  1.1074828612617690e-04  4.8939301476403913e-04  1.0851240109760348e-03  1.8691287590363772e-03  2.8110133514177155e-03  3.8793955939701520e-03  5.0419813582777123e-03  6.2658175157212287e-03  7.5175391443230485e-03  8.7636635241500373e-03  9.9709207846057895e-03  1.1106628123374910e-02  1.2139110235818637e-02  1.3038170046190914e-02  1.3775613766885944e-02  1.4325834672689995e-02  1.4666460243953036e-02  1.4779067646468504e-02  1.4649972838621282e-02  1.4271098944904135e-02  1.3640929885416465e-02  1.2765555687606027e-02  1.1659816122814772e-02  1.0348550453534128e-02  8.8679588747655694e-03  7.2670916241684685e-03  5.6094452893447593e-03  3.9747841782586096e-03  2.4607913406807444e-03  1.1860705254277445e-03  2.8887598144671894e-04  -5.7408763882655674e-05  -2.6243714586075177e-05  1.3143713670165266e-04  5.8081635598101285e-04  1.2878356449178418e-03  2.2183000301762490e-03  3.3361377282585137e-03  4.6041040491186834e-03  5.9838720104915411e-03  7.4363325226160168e-03  8.9218877753972341e-03  1.0400800154913570e-02  1.1833584658722090e-02  1.3181453022491747e-02  1.4406812689695479e-02  1.5473825480033582e-02  1.6349030734910789e-02  1.7002038146438758e-02  1.7406295793254267e-02  1.7539939278967475e-02  1.7386728252150676e-02  1.6937077000455027e-02  1.6189186227440693e-02  1.5150283638918381e-02  1.3837981222248613e-02  1.2281758458869706e-02  1.0524578096518425e-02  8.6246534389434297e-03  6.6573428597267829e-03  4.7173114155594784e-03  2.9204903048607078e-03  1.4076395792523425e-03  3.4284069444120166e-04  -6.8133253492508932e-05  -2.8975025047864878e-05  1.4511643610287228e-04  6.4126472395534099e-04  1.4218669250743738e-03  2.4491692269640528e-03  3.6833456804347487e-03  5.0832753603077575e-03  6.6066424105164718e-03  8.2102674701037218e-03  9.8504315944897142e-03  1.1483261485258446e-02  1.3065162745929216e-02  1.4553310230932537e-02  1.5906198945466174e-02  1.7084260857250459e-02  1.8050552895796632e-02  1.8771521887510856e-02  1.9217852524751510e-02  1.9365404878269939e-02  1.9196248385442517e-02  1.8699799703449514e-02  1.7874072275841282e-02  1.6727046033052851e-02  1.5278165930726874e-02  1.3559979527717219e-02  1.1619920919592859e-02  9.5222619585880585e-03  7.3502039368887632e-03  5.2082641690954900e-03  3.2244393711033451e-03  1.5541391674943384e-03  3.7852170236608038e-04  -7.5224195117779176e-05  -3.0423285298401972e-05  1.5236979883618748e-04  6.7331709219514582e-04  1.4929361704275736e-03  2.5715861681178446e-03  3.8674505122212369e-03  5.3373529277602706e-03  6.9368624831454926e-03  8.6206415817855521e-03  1.0342786073760560e-02  1.2057229740468254e-02  1.3718199205726336e-02  1.5280728793782365e-02  1.6701238964724745e-02  1.7938183956281373e-02  1.8952774171320262e-02  1.9709779346705137e-02  2.0178418906446356e-02  2.0333346333958828e-02  2.0155734842361321e-02  1.9634472101314006e-02  1.8767472261117319e-02  1.7563114115462550e-02  1.6041814541669371e-02  1.4237747930017785e-02  1.2200719283644870e-02  9.9982129655495581e-03  7.7175889297123393e-03  5.4685885883696116e-03  3.3856063221360069e-03  1.6318195835975130e-03  3.9744131691332951e-04  -7.8984118999960020e-05  -3.0705163726379241e-05  1.5378153856994875e-04  6.7955552234041147e-04  1.5067685482853541e-03  2.5954124676569948e-03  3.9032832663645762e-03  5.3868046309928546e-03  7.0011339674707794e-03  8.7005136168071505e-03  1.0438614117919267e-02  1.2168942439831295e-02  1.3845301107517720e-02  1.5422307830035330e-02  1.6855979295080925e-02  1.8104384811134171e-02  1.9128375387855154e-02  1.9892394346356465e-02  2.0365375921659674e-02  2.0521738755511679e-02  2.0342481625949850e-02  1.9816389243977429e-02  1.8941356434362143e-02  1.7725839623767069e-02  1.6190444859584888e-02  1.4369663170209584e-02  1.2313761019209330e-02  1.0090848033563372e-02  7.7890935816087841e-03  5.5192558558105074e-03  3.4169744243106826e-03  1.6469386003979936e-03  4.0112365760962618e-04  -7.9715916272453830e-05  -2.9937291323022019e-05  1.4993578156581418e-04  6.6256124883059837e-04  1.4690873915368088e-03  2.5305065800220934e-03  3.8056702336171067e-03  5.2520917911576337e-03  6.8260500783954934e-03  8.4829317406126554e-03  1.0177565921153094e-02  1.1864622284547970e-02  1.3499058660467364e-02  1.5036627676845596e-02  1.6434445954688393e-02  1.7651631403681790e-02  1.8650014069521211e-02  1.9394926472314458e-02  1.9856079736832424e-02  2.0008532240321772e-02  1.9833757940552307e-02  1.9320822018586065e-02  1.8467671945177552e-02  1.7282552670707566e-02  1.5785554931214564e-02  1.4010307210748193e-02  1.2005818918618410e-02  9.8384964068582246e-03  7.5943041147404191e-03  5.3812304020945901e-03  3.3315227671557161e-03  1.6057519709180902e-03  3.9109235850062860e-04  -7.7722380880672541e-05  -2.8236309069775051e-05  1.4141670415543701e-04  6.2491572726734322e-04  1.3856165238720843e-03  2.3867278051575660e-03  3.5894389764335945e-03  4.9536774844371302e-03  6.4382063117425434e-03  8.0009469530831177e-03  9.5992950781347182e-03  1.1190495939701417e-02  1.2732066583263169e-02  1.4182273693918716e-02  1.5500670450260297e-02  1.6648697609626964e-02  1.7590353966024860e-02  1.8292941782706493e-02  1.8727893142276054e-02  1.8871683557945787e-02  1.8706839601639106e-02  1.8223047749556468e-02  1.7418372093222972e-02  1.6300589121410337e-02  1.4888648054377961e-02  1.3214266671669765e-02  1.1323669762551912e-02  9.2794905958003791e-03  7.1628092703913925e-03  5.0754784431923461e-03  3.1422315439724327e-03  1.5145159838777570e-03  3.6887118202139248e-04  -7.3306332560460946e-05  -2.5718855227277756e-05  1.2880846902466105e-04  5.6920035320550224e-04  1.2620796359391166e-03  2.1739352140499164e-03  3.2694167130461007e-03  4.5120243120434240e-03  5.8641975460481371e-03  7.2876094869758004e-03  8.7434542631398236e-03  1.0192788997369631e-02  1.1596918373706907e-02  1.2917829880902313e-02  1.4118682801846019e-02  1.5164355707648158e-02  1.6022057139382224e-02  1.6662004580147306e-02  1.7058177130577099e-02  1.7189147665904951e-02  1.7039000627939452e-02  1.6598342010466199e-02  1.5865408504016350e-02  1.4847283273600017e-02  1.3561226094485332e-02  1.2036126900837866e-02  1.0314089240760984e-02  8.4521622160762169e-03  6.5241970991811865e-03  4.6229657054809251e-03  2.8620806463092317e-03  1.3794867819059569e-03  3.3598385624109608e-04  -6.6770584095612737e-05  -2.2501568739522641e-05  1.1269524228810216e-04  4.9799653738034043e-04  1.1042004521775574e-03  1.9019879359679574e-03  2.8604307494073159e-03  3.9475949962691961e-03  5.1306188172143274e-03  6.3759697706081506e-03  7.6496963851000023e-03  8.9177273232728133e-03  1.0146207841117262e-02  1.1301880584735543e-02  1.2352513409496729e-02  1.3267378385147082e-02  1.4017786084189823e-02  1.4577679618014277e-02  1.4924293156865182e-02  1.5038879989002834e-02  1.4907515502642308e-02  1.4521980828597287e-02  1.3880733237913131e-02  1.2989969832924978e-02  1.1864791290284985e-02  1.0530473577978920e-02  9.0238533276674904e-03  7.3948431169048321e-03  5.7080558321438383e-03  4.0446580436942492e-03  2.5040500452265502e-03  1.2069205467613291e-03  2.9395411846738095e-04  -5.8417950150633580e-05  -1.8701088326676227e-05  9.3661188937003558e-05  4.1388568561776060e-04  9.1770268616421762e-04  1.5807450814886424e-03  2.3773083633313796e-03  3.2808522205162441e-03  4.2640651105213985e-03  5.2990781693306949e-03  6.3576742774028297e-03  7.4115366951757319e-03  8.4325286950105143e-03  9.3930100416650848e-03  1.0266192553012822e-02  1.1026538201388528e-02  1.1650203160985573e-02  1.2115531511898255e-02  1.2403602537094244e-02  1.2498835813888474e-02  1.2389658574186280e-02  1.2069240102151978e-02  1.1536298233928342e-02  1.0795983393256775e-02  9.8608457798609675e-03  8.7518922945209431e-03  7.4997379227325902e-03  6.1458650864794134e-03  4.7439736535035961e-03  3.3615212795002386e-03  2.0811196916210809e-03  1.0030734504083961e-03  2.4430570383837132e-04  -4.8551244936907484e-05  -1.4434052738868710e-05  7.2290474114896093e-05  3.1944920441299637e-04  7.0831005295671646e-04  1.2200657636965257e-03  1.8348768363235855e-03  2.5322586731603221e-03  3.2911314175753620e-03  4.0899850562280586e-03  4.9070407826429709e-03  5.7204429016092673e-03  6.5084746573453216e-03  7.2498025022059648e-03  7.9237505284642101e-03  8.5106077340931577e-03  8.9919707511133644e-03  9.3511249006361687e-03  9.5734666128999245e-03  9.6469704551572482e-03  9.5627042208526730e-03  9.3153957605071197e-03  8.9040554628230153e-03  8.3326585798422018e-03  7.6108917312786321e-03  6.7549686694590803e-03  5.7885189496411967e-03  4.7435599331727861e-03  3.6615387631724026e-03  2.5945212457587625e-03  1.6062695432762131e-03  7.7420166824241602e-04  1.8856234828398060e-04  -3.7473282829161911e-05  -9.8171007022666864e-06  4.9167262846205303e-05  2.1726849972655626e-04  4.8174626639833131e-04  8.2980909353015566e-04  1.2479634465673004e-03  1.7222770378587395e-03  2.2384127236827352e-03  2.7817407963746156e-03  3.3374487336357587e-03  3.8906717195846541e-03  4.4266394369463676e-03  4.9308422023517035e-03  5.3892176163337522e-03  5.7883595447311351e-03  6.1157512194672551e-03  6.3600244069038636e-03  6.5112467104387296e-03  6.5612392129898280e-03  6.5039268078661075e-03  6.3357237215057186e-03  6.0559568853315957e-03  5.6673300093679959e-03  5.1764313054057428e-03  4.5942883158093927e-03  3.9369723271843390e-03  3.2262594614376576e-03  2.4903393580648389e-03  1.7646237731883307e-03  1.0924795566839758e-03  5.2656137502984392e-04  1.2824778763193478e-04  -2.5486878176536982e-05  -4.9668709488951282e-06  2.4875720186328987e-05  1.0992497763724129e-04  2.4373504057105007e-04  4.1983418229880312e-04  6.3139547273643201e-04  8.7136999883867495e-04  1.1325040147333336e-03  1.4073957553564207e-03  1.6885509635442804e-03  1.9684489262108236e-03  2.2396167424196967e-03  2.4947133775236065e-03  2.7266240961709926e-03  2.9285661934933633e-03  3.0942069293393749e-03  3.2177946515177191e-03  3.2943041538829407e-03  3.3195973853768976e-03  3.2906006980295108e-03  3.2054999002285828e-03  3.0639544591517776e-03  2.8673322952704667e-03  2.6189666597247960e-03  2.3244368432183229e-03  1.9918739709984946e-03  1.6322954730036683e-03  1.2599636329701498e-03  8.9279469107544137e-04  5.5272968754095479e-04  2.6640874526487465e-04  6.4885757681345222e-05  -1.2894845321474535e-05  -2.2230491091874415e-12  1.1253456167292278e-11  4.4484951581227918e-11  9.0122924100625994e-11  1.4227638609275550e-10  1.9493239847097254e-10  2.4223749701181310e-10  2.7897233081037913e-10  3.0146177928490038e-10  3.0842621568960852e-10  3.0148522297026622e-10  2.8502743536203932e-10  2.6532816425031142e-10  2.4900184088451110e-10  2.4110353111956149e-10  2.4337094659659101e-10  2.5316261803923197e-10  2.6355395199139504e-10  2.6479013263708952e-10  2.4691085416440041e-10  2.0294809853927532e-10  1.3179027728441115e-10  3.9728432674711329e-11  -6.0056418090946606e-11  -1.5026524436637787e-10  -2.1395452996537403e-10  -2.3948000424075036e-10  -2.2433696941119900e-10  -1.7608191939027710e-10  -1.1119325640842486e-10  -4.7710735685021889e-11  -5.9568841643169567e-12  1.4352273896119567e-12  4.9668667088504454e-06  -2.4875698722016465e-05  -1.0992489291271476e-04  -2.4373486924230038e-04  -4.1983391243229025e-04  -6.3139510397765459e-04  -8.7136954201183362e-04  -1.1325034905216589e-03  -1.4073951912415049e-03  -1.6885503891268026e-03  -1.9684483675876181e-03  -2.2396162168415597e-03  -2.4947128897862105e-03  -2.7266236380240508e-03  -2.9285657467470875e-03  -3.0942064723991779e-03  -3.2177941680029284e-03  -3.2943036410886394e-03  -3.3195968599460013e-03  -3.2906001965498253e-03  -3.2054994736157604e-03  -3.0639541614242496e-03  -2.8673321692234159e-03  -2.6189667234505394e-03  -2.3244370818281987e-03  -1.9918743368534135e-03  -1.6322958954215754e-03  -1.2599640353782651e-03  -8.9279501009785673e-04  -5.5272989016478397e-04  -2.6640883213524026e-04  -6.4885768057035696e-05  1.2894847867271360e-05  9.8170970538794826e-06  -4.9167244375947638e-05  -2.1726842716345381e-04  -4.8174612054787519e-04  -8.2980886551218386e-04  -1.2479631377825626e-03  -1.7222766593732327e-03  -2.2384122947800406e-03  -2.7817403415936991e-03  -3.3374482784294598e-03  -3.8906712852141648e-03  -4.4266390357099563e-03  -4.9308418344479682e-03  -5.3892172695111824e-03  -5.7883591973370519e-03  -6.1157508466602312e-03  -6.3600239888262199e-03  -6.5112462403292080e-03  -6.5612387028428348e-03  -6.5039262895282886e-03  -6.3357232420984295e-03  -6.0559564974343302e-03  -5.6673297581017598e-03  -5.1764312158723595e-03  -4.5942883847648313e-03  -3.9369725219706997e-03  -3.2262597272086036e-03  -2.4903396317600269e-03  -1.7646239996746773e-03  -1.0924797039479997e-03  -5.2656143789523704e-04  -1.2824779370596852e-04  2.5486879812517653e-05  1.4434049992218394e-05  -7.2290460208943193e-05  -3.1944915029677830e-04  -7.0830994554944447e-04  -1.2200655984705836e-03  -1.8348766170063913e-03  -2.5322584108477451e-03  -3.2911311291485396e-03  -4.0899847615995816e-03  -4.9070405009828738e-03  -5.7204426470712577e-03  -6.5084744351925584e-03  -7.2498023063963558e-03  -7.9237503416357720e-03  -8.5106075304551485e-03  -8.9919705020579804e-03  -9.3511245820908535e-03  -9.5734662127532101e-03  -9.6469699787542738e-03  -9.5627036927438368e-03  -9.3153952214060573e-03  -8.9040549619625806e-03  -8.3326581643106291e-03  -7.6108914350347390e-03  -6.7549685051574585e-03  -5.7885189058334624e-03  -4.7435599779852141e-03  -3.6615388536148765e-03  -2.5945213394506128e-03  -1.6062696105465935e-03  -7.7420169627411234e-04  -1.8856234817452713e-04  3.7473283151208601e-05  1.8701086678626708e-05  -9.3661180593862262e-05  -4.1388565381143410e-04  -9.1770262486966844e-04  -1.5807449909185616e-03  -2.3773082493951081e-03  -3.2808520937087798e-03  -4.2640649842859129e-03  -5.2990780576683176e-03  -6.3576741918912622e-03  -7.4115366417925313e-03  -8.4325286714059117e-03  -9.3930100356342527e-03  -1.0266192542833737e-02  -1.1026538158388492e-02  -1.1650203054213697e-02  -1.2115531314210434e-02  -1.2403602231447479e-02  -1.2498835398360043e-02  -1.2389658064309758e-02  -1.2069239529652803e-02  -1.1536297641778737e-02  -1.0795982827958586e-02  -9.8608452827149192e-03  -8.7518918940647124e-03  -7.4997376302986330e-03  -6.1458648959866781e-03  -4.7439735454091235e-03  -3.3615212272842102e-03  -2.0811196699673175e-03  -1.0030734394756518e-03  -2.4430569695374884e-04  4.8551243805940270e-05  2.2501568252868477e-05  -1.1269523982876884e-04  -4.9799652891913311e-04  -1.1042004385730900e-03  -1.9019879216175470e-03  -2.8604307415636566e-03  -3.9475950038446216e-03  -5.1306188492484224e-03  -6.3759698344257399e-03  -7.6496964843217486e-03  -8.9177274559292339e-03  -1.0146207998221003e-02  -1.1301880749707349e-02  -1.2352513558794754e-02  -1.3267378490293472e-02  -1.4017786115136955e-02  -1.4577679547484797e-02  -1.4924292965002603e-02  -1.5038879667467161e-02  -1.4907515057253094e-02  -1.4521980279810276e-02  -1.3880732618809883e-02  -1.2989969184920713e-02  -1.1864790657288488e-02  -1.0530473000119207e-02  -9.0238528358033716e-03  -7.3948427289438554e-03  -5.7080555518005038e-03  -4.0446578616324799e-03  -2.5040499428769843e-03  -1.2069205001841914e-03  -2.9395410567191937e-04  5.8417947727168736e-05  2.5718855829491283e-05  -1.2880847208548968e-04  -5.6920036633055385e-04  -1.2620796657157826e-03  -2.1739352677511438e-03  -3.2694167979541978e-03  -4.5120244343648426e-03  -5.8641977096857440e-03  -7.2876096924144439e-03  -8.7434545065926145e-03  -1.0192789270280981e-02  -1.1596918662665118e-02  -1.2917830167988345e-02  -1.4118683065434810e-02  -1.5164355923673784e-02  -1.6022057283068714e-02  -1.6662004628179169e-02  -1.7058177063617563e-02  -1.7189147471271832e-02  -1.7039000302122052e-02  -1.6598341561054334e-02  -1.5865407950554106e-02  -1.4847282646919173e-02  -1.3561225434246633e-02  -1.2036126251303155e-02  -1.0314088645204427e-02  -8.4521617106476411e-03  -6.5241967073733295e-03  -4.6229654345010876e-03  -2.8620804865334463e-03  -1.3794867097199725e-03  -3.3598383973214421e-04  6.6770580815588820e-05  2.8236310570810919e-05  -1.4141671177727853e-04  -6.2491575787271259e-04  -1.3856165879513813e-03  -2.3867279111499350e-03  -3.5894391302113025e-03  -4.9536776885269699e-03  -6.4382065645909661e-03  -8.0009472487998310e-03  -9.5992954068309794e-03  -1.1190496288364956e-02  -1.2732066936933774e-02  -1.4182274036841273e-02  -1.5500670766711633e-02  -1.6648697884246364e-02  -1.7590354183701397e-02  -1.8292941928313239e-02  -1.8727893200714399e-02  -1.8871683514977446e-02  -1.8706839445798505e-02  -1.8223047475062825e-02  -1.7418371703339760e-02  -1.6300588631280380e-02  -1.4888647492172270e-02  -1.3214266077054858e-02  -1.1323669182064268e-02  -9.2794900756044130e-03  -7.1628088478478446e-03  -5.0754781395432316e-03  -3.1422313598772184e-03  -1.5145159007382567e-03  -3.6887116492076124e-04  7.3306329053412752e-05  2.9937293448850189e-05  -1.4993579236242447e-04  -6.6256129122697926e-04  -1.4690874778400538e-03  -2.5305067181432134e-03  -3.8056704268289035e-03  -5.2520920377665059e-03  -6.8260503716269334e-03  -8.4829320692567690e-03  -1.0177566271039893e-02  -1.1864622640650076e-02  -1.3499059009145799e-02  -1.5036628007616189e-02  -1.6434446260930657e-02  -1.7651631681964045e-02  -1.8650014317627993e-02  -1.9394926686536241e-02  -1.9856079909455593e-02  -2.0008532358395163e-02  -1.9833757986793904e-02  -1.9320821974725604e-02  -1.8467671797226110e-02  -1.7282552414827984e-02  -1.5785554578340532e-02  -1.4010306788102134e-02  -1.2005818466958643e-0