<?xml version="1.0"?>
<VTKFile type="UnstructuredGrid"  version="0.1"  >
<UnstructuredGrid>
<Piece  NumberOfPoints="1089" NumberOfCells="1024">
<Points>
<DataArray  type="Float64"  NumberOfComponents="3"  format="ascii">0 0 0  0.03125 0 0  0.0625 0 0  0.09375 0 0  0.125 0 0  0.15625 0 0  0.1875 0 0  0.21875 0 0  0.25 0 0  0.28125 0 0  0.3125 0 0  0.34375 0 0  0.375 0 0  0.40625 0 0  0.4375 0 0  0.46875 0 0  0.5 0 0  0.53125 0 0  0.5625 0 0  0.59375 0 0  0.625 0 0  0.65625 0 0  0.6875 0 0  0.71875 0 0  0.75 0 0  0.78125 0 0  0.8125 0 0  0.84375 0 0  0.875 0 0  0.90625 0 0  0.9375 0 0  0.96875 0 0  1 0 0  0 0.03125 0  0.03125 0.03125 0  0.0625 0.03125 0  0.09375 0.03125 0  0.125 0.03125 0  0.15625 0.03125 0  0.1875 0.03125 0  0.21875 0.03125 0  0.25 0.03125 0  0.28125 0.03125 0  0.3125 0.03125 0  0.34375 0.03125 0  0.375 0.03125 0  0.40625 0.03125 0  0.4375 0.03125 0  0.46875 0.03125 0  0.5 0.03125 0  0.53125 0.03125 0  0.5625 0.03125 0  0.59375 0.03125 0  0.625 0.03125 0  0.65625 0.03125 0  0.6875 0.03125 0  0.71875 0.03125 0  0.75 0.03125 0  0.78125 0.03125 0  0.8125 0.03125 0  0.84375 0.03125 0  0.875 0.03125 0  0.90625 0.03125 0  0.9375 0.03125 0  0.96875 0.03125 0  1 0.03125 0  0 0.0625 0  0.03125 0.0625 0  0.0625 0.0625 0  0.09375 0.0625 0  0.125 0.0625 0  0.15625 0.0625 0  0.1875 0.0625 0  0.21875 0.0625 0  0.25 0.0625 0  0.28125 0.0625 0  0.3125 0.0625 0  0.34375 0.0625 0  0.375 0.0625 0  0.40625 0.0625 0  0.4375 0.0625 0  0.46875 0.0625 0  0.5 0.0625 0  0.53125 0.0625 0  0.5625 0.0625 0  0.59375 0.0625 0  0.625 0.0625 0  0.65625 0.0625 0  0.6875 0.0625 0  0.71875 0.0625 0  0.75 0.0625 0  0.78125 0.0625 0  0.8125 0.0625 0  0.84375 0.0625 0  0.875 0.0625 0  0.90625 0.0625 0  0.9375 0.0625 0  0.96875 0.0625 0  1 0.0625 0  0 0.09375 0  0.03125 0.09375 0  0.0625 0.09375 0  0.09375 0.09375 0  0.125 0.09375 0  0.15625 0.09375 0  0.1875 0.09375 0  0.21875 0.09375 0  0.25 0.09375 0  0.28125 0.09375 0  0.3125 0.09375 0  0.34375 0.09375 0  0.375 0.09375 0  0.40625 0.09375 0  0.4375 0.09375 0  0.46875 0.09375 0  0.5 0.09375 0  0.53125 0.09375 0  0.5625 0.09375 0  0.59375 0.09375 0  0.625 0.09375 0  0.65625 0.09375 0  0.6875 0.09375 0  0.71875 0.09375 0  0.75 0.09375 0  0.78125 0.09375 0  0.8125 0.09375 0  0.84375 0.09375 0  0.875 0.09375 0  0.90625 0.09375 0  0.9375 0.09375 0  0.96875 0.09375 0  1 0.09375 0  0 0.125 0  0.03125 0.125 0  0.0625 0.125 0  0.09375 0.125 0  0.125 0.125 0  0.15625 0.125 0  0.1875 0.125 0  0.21875 0.125 0  0.25 0.125 0  0.28125 0.125 0  0.3125 0.125 0  0.34375 0.125 0  0.375 0.125 0  0.40625 0.125 0  0.4375 0.125 0  0.46875 0.125 0  0.5 0.125 0  0.53125 0.125 0  0.5625 0.125 0  0.59375 0.125 0  0.625 0.125 0  0.65625 0.125 0  0.6875 0.125 0  0.71875 0.125 0  0.75 0.125 0  0.78125 0.125 0  0.8125 0.125 0  0.84375 0.125 0  0.875 0.125 0  0.90625 0.125 0  0.9375 0.125 0  0.96875 0.125 0  1 0.125 0  0 0.15625 0  0.03125 0.15625 0  0.0625 0.15625 0  0.09375 0.15625 0  0.125 0.15625 0  0.15625 0.15625 0  0.1875 0.15625 0  0.21875 0.15625 0  0.25 0.15625 0  0.28125 0.15625 0  0.3125 0.15625 0  0.34375 0.15625 0  0.375 0.15625 0  0.40625 0.15625 0  0.4375 0.15625 0  0.46875 0.15625 0  0.5 0.15625 0  0.53125 0.15625 0  0.5625 0.15625 0  0.59375 0.15625 0  0.625 0.15625 0  0.65625 0.15625 0  0.6875 0.15625 0  0.71875 0.15625 0  0.75 0.15625 0  0.78125 0.15625 0  0.8125 0.15625 0  0.84375 0.15625 0  0.875 0.15625 0  0.90625 0.15625 0  0.9375 0.15625 0  0.96875 0.15625 0  1 0.15625 0  0 0.1875 0  0.03125 0.1875 0  0.0625 0.1875 0  0.09375 0.1875 0  0.125 0.1875 0  0.15625 0.1875 0  0.1875 0.1875 0  0.21875 0.1875 0  0.25 0.1875 0  0.28125 0.1875 0  0.3125 0.1875 0  0.34375 0.1875 0  0.375 0.1875 0  0.40625 0.1875 0  0.4375 0.1875 0  0.46875 0.1875 0  0.5 0.1875 0  0.53125 0.1875 0  0.5625 0.1875 0  0.59375 0.1875 0  0.625 0.1875 0  0.65625 0.1875 0  0.6875 0.1875 0  0.71875 0.1875 0  0.75 0.1875 0  0.78125 0.1875 0  0.8125 0.1875 0  0.84375 0.1875 0  0.875 0.1875 0  0.90625 0.1875 0  0.9375 0.1875 0  0.96875 0.1875 0  1 0.1875 0  0 0.21875 0  0.03125 0.21875 0  0.0625 0.21875 0  0.09375 0.21875 0  0.125 0.21875 0  0.15625 0.21875 0  0.1875 0.21875 0  0.21875 0.21875 0  0.25 0.21875 0  0.28125 0.21875 0  0.3125 0.21875 0  0.34375 0.21875 0  0.375 0.21875 0  0.40625 0.21875 0  0.4375 0.21875 0  0.46875 0.21875 0  0.5 0.21875 0  0.53125 0.21875 0  0.5625 0.21875 0  0.59375 0.21875 0  0.625 0.21875 0  0.65625 0.21875 0  0.6875 0.21875 0  0.71875 0.21875 0  0.75 0.21875 0  0.78125 0.21875 0  0.8125 0.21875 0  0.84375 0.21875 0  0.875 0.21875 0  0.90625 0.21875 0  0.9375 0.21875 0  0.96875 0.21875 0  1 0.21875 0  0 0.25 0  0.03125 0.25 0  0.0625 0.25 0  0.09375 0.25 0  0.125 0.25 0  0.15625 0.25 0  0.1875 0.25 0  0.21875 0.25 0  0.25 0.25 0  0.28125 0.25 0  0.3125 0.25 0  0.34375 0.25 0  0.375 0.25 0  0.40625 0.25 0  0.4375 0.25 0  0.46875 0.25 0  0.5 0.25 0  0.53125 0.25 0  0.5625 0.25 0  0.59375 0.25 0  0.625 0.25 0  0.65625 0.25 0  0.6875 0.25 0  0.71875 0.25 0  0.75 0.25 0  0.78125 0.25 0  0.8125 0.25 0  0.84375 0.25 0  0.875 0.25 0  0.90625 0.25 0  0.9375 0.25 0  0.96875 0.25 0  1 0.25 0  0 0.28125 0  0.03125 0.28125 0  0.0625 0.28125 0  0.09375 0.28125 0  0.125 0.28125 0  0.15625 0.28125 0  0.1875 0.28125 0  0.21875 0.28125 0  0.25 0.28125 0  0.28125 0.28125 0  0.3125 0.28125 0  0.34375 0.28125 0  0.375 0.28125 0  0.40625 0.28125 0  0.4375 0.28125 0  0.46875 0.28125 0  0.5 0.28125 0  0.53125 0.28125 0  0.5625 0.28125 0  0.59375 0.28125 0  0.625 0.28125 0  0.65625 0.28125 0  0.6875 0.28125 0  0.71875 0.28125 0  0.75 0.28125 0  0.78125 0.28125 0  0.8125 0.28125 0  0.84375 0.28125 0  0.875 0.28125 0  0.90625 0.28125 0  0.9375 0.28125 0  0.96875 0.28125 0  1 0.28125 0  0 0.3125 0  0.03125 0.3125 0  0.0625 0.3125 0  0.09375 0.3125 0  0.125 0.3125 0  0.15625 0.3125 0  0.1875 0.3125 0  0.21875 0.3125 0  0.25 0.3125 0  0.28125 0.3125 0  0.3125 0.3125 0  0.34375 0.3125 0  0.375 0.3125 0  0.40625 0.3125 0  0.4375 0.3125 0  0.46875 0.3125 0  0.5 0.3125 0  0.53125 0.3125 0  0.5625 0.3125 0  0.59375 0.3125 0  0.625 0.3125 0  0.65625 0.3125 0  0.6875 0.3125 0  0.71875 0.3125 0  0.75 0.3125 0  0.78125 0.3125 0  0.8125 0.3125 0  0.84375 0.3125 0  0.875 0.3125 0  0.90625 0.3125 0  0.9375 0.3125 0  0.96875 0.3125 0  1 0.3125 0  0 0.34375 0  0.03125 0.34375 0  0.0625 0.34375 0  0.09375 0.34375 0  0.125 0.34375 0  0.15625 0.34375 0  0.1875 0.34375 0  0.21875 0.34375 0  0.25 0.34375 0  0.28125 0.34375 0  0.3125 0.34375 0  0.34375 0.34375 0  0.375 0.34375 0  0.40625 0.34375 0  0.4375 0.34375 0  0.46875 0.34375 0  0.5 0.34375 0  0.53125 0.34375 0  0.5625 0.34375 0  0.59375 0.34375 0  0.625 0.34375 0  0.65625 0.34375 0  0.6875 0.34375 0  0.71875 0.34375 0  0.75 0.34375 0  0.78125 0.34375 0  0.8125 0.34375 0  0.84375 0.34375 0  0.875 0.34375 0  0.90625 0.34375 0  0.9375 0.34375 0  0.96875 0.34375 0  1 0.34375 0  0 0.375 0  0.03125 0.375 0  0.0625 0.375 0  0.09375 0.375 0  0.125 0.375 0  0.15625 0.375 0  0.1875 0.375 0  0.21875 0.375 0  0.25 0.375 0  0.28125 0.375 0  0.3125 0.375 0  0.34375 0.375 0  0.375 0.375 0  0.40625 0.375 0  0.4375 0.375 0  0.46875 0.375 0  0.5 0.375 0  0.53125 0.375 0  0.5625 0.375 0  0.59375 0.375 0  0.625 0.375 0  0.65625 0.375 0  0.6875 0.375 0  0.71875 0.375 0  0.75 0.375 0  0.78125 0.375 0  0.8125 0.375 0  0.84375 0.375 0  0.875 0.375 0  0.90625 0.375 0  0.9375 0.375 0  0.96875 0.375 0  1 0.375 0  0 0.40625 0  0.03125 0.40625 0  0.0625 0.40625 0  0.09375 0.40625 0  0.125 0.40625 0  0.15625 0.40625 0  0.1875 0.40625 0  0.21875 0.40625 0  0.25 0.40625 0  0.28125 0.40625 0  0.3125 0.40625 0  0.34375 0.40625 0  0.375 0.40625 0  0.40625 0.40625 0  0.4375 0.40625 0  0.46875 0.40625 0  0.5 0.40625 0  0.53125 0.40625 0  0.5625 0.40625 0  0.59375 0.40625 0  0.625 0.40625 0  0.65625 0.40625 0  0.6875 0.40625 0  0.71875 0.40625 0  0.75 0.40625 0  0.78125 0.40625 0  0.8125 0.40625 0  0.84375 0.40625 0  0.875 0.40625 0  0.90625 0.40625 0  0.9375 0.40625 0  0.96875 0.40625 0  1 0.40625 0  0 0.4375 0  0.03125 0.4375 0  0.0625 0.4375 0  0.09375 0.4375 0  0.125 0.4375 0  0.15625 0.4375 0  0.1875 0.4375 0  0.21875 0.4375 0  0.25 0.4375 0  0.28125 0.4375 0  0.3125 0.4375 0  0.34375 0.4375 0  0.375 0.4375 0  0.40625 0.4375 0  0.4375 0.4375 0  0.46875 0.4375 0  0.5 0.4375 0  0.53125 0.4375 0  0.5625 0.4375 0  0.59375 0.4375 0  0.625 0.4375 0  0.65625 0.4375 0  0.6875 0.4375 0  0.71875 0.4375 0  0.75 0.4375 0  0.78125 0.4375 0  0.8125 0.4375 0  0.84375 0.4375 0  0.875 0.4375 0  0.90625 0.4375 0  0.9375 0.4375 0  0.96875 0.4375 0  1 0.4375 0  0 0.46875 0  0.03125 0.46875 0  0.0625 0.46875 0  0.09375 0.46875 0  0.125 0.46875 0  0.15625 0.46875 0  0.1875 0.46875 0  0.21875 0.46875 0  0.25 0.46875 0  0.28125 0.46875 0  0.3125 0.46875 0  0.34375 0.46875 0  0.375 0.46875 0  0.40625 0.46875 0  0.4375 0.46875 0  0.46875 0.46875 0  0.5 0.46875 0  0.53125 0.46875 0  0.5625 0.46875 0  0.59375 0.46875 0  0.625 0.46875 0  0.65625 0.46875 0  0.6875 0.46875 0  0.71875 0.46875 0  0.75 0.46875 0  0.78125 0.46875 0  0.8125 0.46875 0  0.84375 0.46875 0  0.875 0.46875 0  0.90625 0.46875 0  0.9375 0.46875 0  0.96875 0.46875 0  1 0.46875 0  0 0.5 0  0.03125 0.5 0  0.0625 0.5 0  0.09375 0.5 0  0.125 0.5 0  0.15625 0.5 0  0.1875 0.5 0  0.21875 0.5 0  0.25 0.5 0  0.28125 0.5 0  0.3125 0.5 0  0.34375 0.5 0  0.375 0.5 0  0.40625 0.5 0  0.4375 0.5 0  0.46875 0.5 0  0.5 0.5 0  0.53125 0.5 0  0.5625 0.5 0  0.59375 0.5 0  0.625 0.5 0  0.65625 0.5 0  0.6875 0.5 0  0.71875 0.5 0  0.75 0.5 0  0.78125 0.5 0  0.8125 0.5 0  0.84375 0.5 0  0.875 0.5 0  0.90625 0.5 0  0.9375 0.5 0  0.96875 0.5 0  1 0.5 0  0 0.53125 0  0.03125 0.53125 0  0.0625 0.53125 0  0.09375 0.53125 0  0.125 0.53125 0  0.15625 0.53125 0  0.1875 0.53125 0  0.21875 0.53125 0  0.25 0.53125 0  0.28125 0.53125 0  0.3125 0.53125 0  0.34375 0.53125 0  0.375 0.53125 0  0.40625 0.53125 0  0.4375 0.53125 0  0.46875 0.53125 0  0.5 0.53125 0  0.53125 0.53125 0  0.5625 0.53125 0  0.59375 0.53125 0  0.625 0.53125 0  0.65625 0.53125 0  0.6875 0.53125 0  0.71875 0.53125 0  0.75 0.53125 0  0.78125 0.531
[...]
<PointData  Scalars="v_sol"> 
<DataArray  type="Float64"  Name="v_sol"  format="ascii">7.7402614272898595e-08  9.3448504584800175e-06  1.7646932213638470e-05  2.4929106093348677e-05  3.1144944186297993e-05  3.6252433204118036e-05  4.0216173457039038e-05  4.3008097709226905e-05  4.4608707540879866e-05  4.5008298324386055e-05  4.4208323595767574e-05  4.2222867987058940e-05  3.9080246960091949e-05  3.4824739140580783e-05  2.9518460977148324e-05  2.3243393090737458e-05  1.6103568478870736e-05  8.2274332775577641e-06  -2.2960857273526659e-07  -9.0824547517471658e-06  -1.8113355355602861e-05  -2.7068741668705122e-05  -3.5655818499438552e-05  -4.3538905882520739e-05  -5.0335510868006906e-05  -5.5612125972131966e-05  -5.8879684829262190e-05  -5.9588853629219292e-05  -5.7124392793734242e-05  -5.0801363517572757e-05  -3.9852742138853888e-05  -2.3447022011881769e-05  -5.9339502525363296e-07  -3.8851642325194723e-07  -4.6905732320717785e-05  -8.8577371292173130e-05  -1.2512966392364320e-04  -1.5632956822925391e-04  -1.8196620316022932e-04  -2.0186188187709572e-04  -2.1587572361506200e-04  -2.2390985737604695e-04  -2.2591557165226777e-04  -2.2190016230376282e-04  -2.1193432603176468e-04  -1.9616019003032130e-04  -1.7480000733471321e-04  -1.4816556650962430e-04  -1.1666836275502822e-04  -8.0830581420838338e-05  -4.1296947666622996e-05  1.1525007951503490e-06  4.5588657589099206e-05  9.0918544414353631e-05  1.3586939324044143e-04  1.7897154200965240e-04  2.1854007161105436e-04  2.5265508977706161e-04  2.7914063871185282e-04  2.9554189239559001e-04  2.9910150536672982e-04  2.8673134895323873e-04  2.5499339440135702e-04  2.0003767370941280e-04  1.1769047583408418e-04  2.9784902721542509e-06  -1.6547521197247107e-06  -1.9977898484360403e-04  -3.7726510489947387e-04  -5.3294711302136156e-04  -6.6583246159185251e-04  -7.7502295363202577e-04  -8.5976180671307135e-04  -9.1944898005437696e-04  -9.5366762865341204e-04  -9.6221028097816024e-04  -9.4510801169787819e-04  -9.0266192896587332e-04  -8.3547737508026985e-04  -7.4450096095150743e-04  -6.3106064363553118e-04  -4.9690904662288971e-04  -3.4427024038660253e-04  -1.7589021191139647e-04  4.9087341328377713e-06  1.9416938602681509e-04  3.8723657522061181e-04  5.7868938066154413e-04  7.6226827652331334e-04  9.3079692682122557e-04  1.0760981962891927e-03  1.1889043529673250e-03  1.2587598520406478e-03  1.2739208341552230e-03  1.2212342149215509e-03  1.0860573903644396e-03  8.5199197967470439e-04  5.0126201846994046e-04  1.2685975752517862e-05  -3.5491583111490591e-06  -4.2849130609509819e-04  -8.0916825150490553e-04  -1.1430791526422838e-03  -1.4280951777266751e-03  -1.6622898410260749e-03  -1.8440399809527188e-03  -1.9720586117781768e-03  -2.0454516740102918e-03  -2.0637741766882899e-03  -2.0270927694539314e-03  -1.9360532768176492e-03  -1.7919540528567300e-03  -1.5968254137356220e-03  -1.3535155971064127e-03  -1.0657836766203603e-03  -7.3839989805820608e-04  -3.7725392767239905e-04  1.0528466778352871e-05  4.1645975197335364e-04  8.3055539816779904e-04  1.2411884690635244e-03  1.6349333661065325e-03  1.9963980915823185e-03  2.3080441048562925e-03  2.5499937283404873e-03  2.6998216169980827e-03  2.7323392579055202e-03  2.6193354841265921e-03  2.3294046446852273e-03  1.8273747134279162e-03  1.0751196523931536e-03  2.7209223865208373e-05  -5.9200223279525032e-06  -7.1472640039643947e-04  -1.3496980966285100e-03  -1.9066637097044613e-03  -2.3820723430879216e-03  -2.7727106021670131e-03  -3.0758710457715163e-03  -3.2894069720898491e-03  -3.4118270843143681e-03  -3.4423891341541757e-03  -3.3812042934184246e-03  -3.2293498013617021e-03  -2.9889913210199570e-03  -2.6635154332258415e-03  -2.2576730175374723e-03  -1.7777342342681049e-03  -1.2316558857861386e-03  -6.2926197540110677e-04  1.7561667939830395e-05  6.9465778117268264e-04  1.3853721010115767e-03  2.0703108187694838e-03  2.7270799442951385e-03  3.3300055200184125e-03  3.8498331382548516e-03  4.2534066976504950e-03  4.5033205617331573e-03  4.5575601361161787e-03  4.3690689643693355e-03  3.8854623122397012e-03  3.0480728408182460e-03  1.7933062978876442e-03  4.5385142107308214e-05  -8.6245841786165379e-06  -1.0412488636200009e-03  -1.9663070952051810e-03  -2.7777221900721740e-03  -3.4703210343965236e-03  -4.0394221947917973e-03  -4.4810813395361054e-03  -4.7921710468318279e-03  -4.9705187220139072e-03  -5.0150430207819554e-03  -4.9259059034935312e-03  -4.7046767453061550e-03  -4.3545105911183884e-03  -3.8803411795000778e-03  -3.2890898272107819e-03  -2.5898912147159737e-03  -1.7943372063843161e-03  -9.1673989755464516e-04  2.5584846607597816e-05  1.0120120230572346e-03  2.0182788748532399e-03  3.0161315390830798e-03  3.9729453389639969e-03  4.8513171777615893e-03  5.6086277800189354e-03  6.1965736906681411e-03  6.5606605168610785e-03  6.6396793235717162e-03  6.3650759108186961e-03  5.6605336738094029e-03  4.4405830456623156e-03  2.6125769659983171e-03  6.6119290125119182e-05  -1.1532114009179868e-05  -1.3922756756643631e-03  -2.6291904017282882e-03  -3.7141505007376838e-03  -4.6402389009113192e-03  -5.4011959602822636e-03  -5.9917476329491692e-03  -6.4077121781467607e-03  -6.6461845746919350e-03  -6.7057189345299615e-03  -6.5865318181508072e-03  -6.2907216696517733e-03  -5.8225071652970939e-03  -5.1884853099384122e-03  -4.3979107409560167e-03  -3.4629976308293707e-03  -2.3992457042214615e-03  -1.2257919637006223e-03  3.4210184499204108e-05  1.3531826163660288e-03  2.6986830905473165e-03  4.0329327736385806e-03  5.3123085244480292e-03  6.4867978754404171e-03  7.4994136959282299e-03  8.2855684206743340e-03  8.7723964496636640e-03  8.8780540407962429e-03  8.5108759277507714e-03  7.5688176385463853e-03  5.9375959957113107e-03  3.4933308423213813e-03  8.8409452160893986e-05  -1.4523087593856642e-05  -1.7533766609270959e-03  -3.3110978979107222e-03  -4.6774535078747959e-03  -5.8437324113743928e-03  -6.8020514654791066e-03  -7.5457687490268141e-03  -8.0696179448173453e-03  -8.3699405855705445e-03  -8.4449157777469926e-03  -8.2948162492011684e-03  -7.9222846969408314e-03  -7.3326339539184640e-03  -6.5341720254598577e-03  -5.5385538336118331e-03  -4.3611614212941989e-03  -3.0215145253147326e-03  -1.5437135258437012e-03  4.3083097539071493e-05  1.7041445510757626e-03  3.3986143642212464e-03  5.0789153735092156e-03  6.6901103253234305e-03  8.1692155013594857e-03  9.4444635688208222e-03  1.0434515510866776e-02  1.1047607282432861e-02  1.1180668134173491e-02  1.0718258471636986e-02  9.5318675942189131e-03  7.4775718080582884e-03  4.3993615102617661e-03  1.1133931734472301e-04  -1.7489407225141972e-05  -2.1115011602322042e-03  -3.9873845605619017e-03  -5.6328161894150536e-03  -7.0373057474410264e-03  -8.1913599735573880e-03  -9.0869803469739944e-03  -9.7178249146028205e-03  -1.0079487974113174e-02  -1.0169776718084660e-02  -9.9890195791790953e-03  -9.5403990214254549e-03  -8.8303130156254881e-03  -7.8687664639724691e-03  -6.6697947876853229e-03  -5.2519217873637026e-03  -3.6386540750636045e-03  -1.8590144957469112e-03  5.1882896711548638e-05  2.0522135968415482e-03  4.0927762611796155e-03  6.1162761607952178e-03  8.0565551881256782e-03  9.8377652919072450e-03  1.1373480766156231e-02  1.2565749220675481e-02  1.3304063942329093e-02  1.3464302146730516e-02  1.2907445884506773e-02  1.1478736388234149e-02  9.0048537837430047e-03  5.2979238675782319e-03  1.3408017271604461e-04  -2.0334342471329895e-05  -2.4549708839744235e-03  -4.6359969655740980e-03  -6.5490845698069153e-03  -8.1820369846588616e-03  -9.5238167187743777e-03  -1.0565124165415250e-02  -1.1298585752143708e-02  -1.1719079119693438e-02  -1.1824054766426475e-02  -1.1613894550879248e-02  -1.1092298616762341e-02  -1.0266705668073315e-02  -9.1487480651652308e-03  -7.7547443157560819e-03  -6.1062314137884030e-03  -4.2305396991294958e-03  -2.1614130490247231e-03  6.0322616288802322e-05  2.3860393606081514e-03  4.7585324465069107e-03  7.1111872297444931e-03  9.3670839145078722e-03  1.1438036534904475e-02  1.3223560844342324e-02  1.4609770913100902e-02  1.5468184328014195e-02  1.5654487740306609e-02  1.5007049698517180e-02  1.3345937467840938e-02  1.0469637922083474e-02  6.1597161911523517e-03  1.5589045008997129e-04  -2.2972546014234995e-05  -2.7734818267195283e-03  -5.2374769036761760e-03  -7.3987708279628925e-03  -9.2435844740497760e-03  -1.0759448334550064e-02  -1.1935856262592413e-02  -1.2764478031168799e-02  -1.3239526701714657e-02  -1.3358121998823429e-02  -1.3120695325296061e-02  -1.2531426887013261e-02  -1.1598720494841340e-02  -1.0335717705258892e-02  -8.7608542077397180e-03  -6.8984612300958294e-03  -4.7794149815879906e-03  -2.4418373093740972e-03  6.8149062453009507e-05  2.6956071490917364e-03  5.3759103978039020e-03  8.0338014942093142e-03  1.0582380967872588e-02  1.2922021491103695e-02  1.4939201862314132e-02  1.6505260448794690e-02  1.7475045372323899e-02  1.7685519902513290e-02  1.6954082337328227e-02  1.5077455285642114e-02  1.1827981084282619e-02  6.9588849408629460e-03  1.7611584763825325e-04  -2.5330049377953203e-05  -3.0581037536947572e-03  -5.7749604108369912e-03  -8.1580519276245322e-03  -1.0192185131000205e-02  -1.1863610861737782e-02  -1.3160744806840305e-02  -1.4074401871559616e-02  -1.4598201248730786e-02  -1.4728967083677335e-02  -1.4467175052791766e-02  -1.3817434346940568e-02  -1.2789011198437530e-02  -1.1396395783864414e-02  -9.6599157093329030e-03  -7.6063991338506309e-03  -5.2698908605166442e-03  -2.6924248969368166e-03  7.5142800268909320e-05  2.9722374693864342e-03  5.9276004097114218e-03  8.8582512003057244e-03  1.1668372514466212e-02  1.4248113002397622e-02  1.6472301616503978e-02  1.8199073131146652e-02  1.9268379807699940e-02  1.9500453672961215e-02  1.8693953977466204e-02  1.6624742508543320e-02  1.3041798804197003e-02  7.6730234720014633e-03  1.9418929747946307e-04  -2.7344264056099314e-05  -3.3012803378913154e-03  -6.2341780272376383e-03  -8.8067699832336723e-03  -1.1002654892352901e-02  -1.2806990280647759e-02  -1.4207270666749287e-02  -1.5193580570470979e-02  -1.5759031793076767e-02  -1.5900195942301753e-02  -1.5617586522036011e-02  -1.4916179241980118e-02  -1.3805977174369563e-02  -1.2302622735857456e-02  -1.0428059956289740e-02  -8.2112503331102163e-03  -5.6889458659017131e-03  -2.9065230507786298e-03  8.1118155272712892e-05  3.2085861605820323e-03  6.3989558583424670e-03  9.5626483227290154e-03  1.2596226946313292e-02  1.5381105131117741e-02  1.7782158380533247e-02  1.9646240523953189e-02  2.0800577032154488e-02  2.1051105019761884e-02  2.0180473388659689e-02  1.7946720765138403e-02  1.4078865874889929e-02  8.2831723806023536e-03  2.0963097443660387e-04  -2.8963981199729228e-05  -3.4968291229180801e-03  -6.6034547271433576e-03  -9.3284321608558176e-03  -1.1654388592591129e-02  -1.3565602366876038e-02  -1.5048827251184406e-02  -1.6093560431220993e-02  -1.6692505693408161e-02  -1.6842031569946000e-02  -1.6542681984352485e-02  -1.5799727380696717e-02  -1.4623763356379332e-02  -1.3031358893871921e-02  -1.1045757858382880e-02  -8.6976372556942360e-03  -6.0259260575977244e-03  -3.0786885983627985e-03  8.5923210330635487e-05  3.3986443555722484e-03  6.7779931275421292e-03  1.0129084455974531e-02  1.3342354739023975e-02  1.6292192987307549e-02  1.8835470706264113e-02  2.0809970232180411e-02  2.2032682877535868e-02  2.2298050605218091e-02  2.1375847709299123e-02  1.9009780446080371e-02  1.4912816192060419e-02  8.7738194113981798e-03  2.2204829374296851e-04  -3.0149371697180276e-05  -3.6399415326842668e-03  -6.8737099371816660e-03  -9.7102107039723912e-03  -1.2131359996013138e-02  -1.4120792728694031e-02  -1.5664720550703431e-02  -1.6752210807540583e-02  -1.7375668680585637e-02  -1.7531314082123557e-02  -1.7219713199316252e-02  -1.6446352178494793e-02  -1.5222260257139053e-02  -1.3564684524888652e-02  -1.1497820130836106e-02  -9.0535995744609171e-03  -6.2725450434880882e-03  -3.2046879657473071e-03  8.9439804135721317e-05  3.5377384888123451e-03  7.0553916262676881e-03  1.0543630841430410e-02  1.3888408488306131e-02  1.6958972773977107e-02  1.9606337476662763e-02  2.1661645960776091e-02  2.2934399672062809e-02  2.3210627849244016e-02  2.2250682507274938e-02  1.9787780758166645e-02  1.5523142796461477e-02  9.1328994828113290e-03  2.3113591168638328e-04  -3.0871986153153417e-05  -3.7271828687050423e-03  -7.0384575312371425e-03  -9.9429429262428027e-03  -1.2422121787648012e-02  -1.4459236796419937e-02  -1.6040169125700523e-02  -1.7153724090826435e-02  -1.7792124844391528e-02  -1.7951500701166408e-02  -1.7632431421530426e-02  -1.6840534645010927e-02  -1.5587103956644614e-02  -1.3889799819998026e-02  -1.1773397285786167e-02  -9.2705942007849373e-03  -6.4228839752226733e-03  -3.2814971756860525e-03  9.1583530604364408e-05  3.6225302931641636e-03  7.2244937829478179e-03  1.0796338359251131e-02  1.4221282899463535e-02  1.7365441774443439e-02  2.0076257891250560e-02  2.2180827498625846e-02  2.3484086223324180e-02  2.3766934912128220e-02  2.2783981763423972e-02  2.0262049709616474e-02  1.5895197862371962e-02  9.3517946802416027e-03  2.3667572546628846e-04  -3.1114754897936493e-05  -3.7564923109000138e-03  -7.0938058319442703e-03  -1.0021131213601880e-02  -1.2519805575857164e-02  -1.4572939825409205e-02  -1.6166304109661661e-02  -1.7288615713530901e-02  -1.7932036636929938e-02  -1.8092665759518099e-02  -1.7771087403713606e-02  -1.6972963386907538e-02  -1.5709676104645180e-02  -1.3999024896391954e-02  -1.1865979633777264e-02  -9.3434952854391708e-03  -6.4733915485308373e-03  -3.3073018473472036e-03  9.2303739857455032e-05  3.6510168016000680e-03  7.2813050477695505e-03  1.0881237531100098e-02  1.4333114790552706e-02  1.7501998355689316e-02  2.0234131469508903e-02  2.2355250721871434e-02  2.3668757821441046e-02  2.3953830697512068e-02  2.2963147874315640e-02  2.0421384112604413e-02  1.6020192699686200e-02  9.4253342574583295e-03  2.3853687328099772e-04  -3.0871987990710548e-05  -3.7271829176054884e-03  -7.0384576106991810e-03  -9.9429430242832153e-03  -1.2422121892367327e-02  -1.4459236896075825e-02  -1.6040169209130897e-02  -1.7153724149018841e-02  -1.7792124872314120e-02  -1.7951500699202455e-02  -1.7632431395911342e-02  -1.6840534606811570e-02  -1.5587103919305697e-02  -1.3889799795770997e-02  -1.1773397281926145e-02  -9.2705942165728899e-03  -6.4228840008809535e-03  -3.2814971938934121e-03  9.1583540552884701e-05  3.6225303493348003e-03  7.2244938944277231e-03  1.0796338521445362e-02  1.4221283092868965e-02  1.7365441967863788e-02  2.0076258049297867e-02  2.2180827591301678e-02  2.3484086235652749e-02  2.3766934848558560e-02  2.2783981648491696e-02  2.0262049580063442e-02  1.5895197751617934e-02  9.3517946354129133e-03  2.3667573433307524e-04  -3.0149375226297603e-05  -3.6399416259234253e-03  -6.8737100883088679e-03  -9.7102108897520831e-03  -1.2131360193452624e-02  -1.4120792915262035e-02  -1.5664720705177184e-02  -1.6752210913019844e-02  -1.7375668727985832e-02  -1.7531314072893725e-02  -1.7219713146217255e-02  -1.6446352103603998e-02  -1.5222260187008309e-02  -1.3564684483621177e-02  -1.1497820132672030e-02  -9.0535996179614987e-03  -6.2725451093793849e-03  -3.2046880198004089e-03  8.9439803084257944e-05  3.5377385771895357e-03  7.0553918234095032e-03  1.0543631140313247e-02  1.3888408852925855e-02  1.6958973145266003e-02  1.9606337786695256e-02  2.1661646151067117e-02  2.2934399712119895e-02  2.3210627745240919e-02  2.2250682303751528e-02  1.9787780523439092e-02  1.5523142593262687e-02  9.1328994015254170e-03  2.3113592879321995e-04  -2.8963986140681125e-05  -3.4968292519712289e-03  -6.6034549354508981e-03  -9.3284324153641435e-03  -1.1654388860768828e-02  -1.3565602617198948e-02  -1.5048827454406798e-02  -1.6093560564597185e-02  -1.6692505745538253e-02  -1.6842031544494897e-02  -1.6542681901020897e-02  -1.5799727272269776e-02  -1.4623763261753653e-02  -1.3031358848135196e-02  -1.1045757882191134e-02  -8.6976373469025824e-03  -6.0259261880710492e-03  -3.0786887179411939e-03  8.5923162524208837e-05  3.3986444345427335e-03  6.7779933647061242e-03  1.0129084845632316e-02  1.3342355234075289e-02  1.6292193506948965e-02  1.8835471155429221e-02  2.0809970526943871e-02  2.2032682971224297e-02  2.2298050501064651e-02  2.1375847463799190e-02  1.9009780149785254e-02  1.4912815929487467e-02  8.7738193087939665e-03  2.2204831790740399e-04  -2.7344270019741946e-05  -3.3012804913747887e-03  -6.2341782735766127e-03  -8.8067702816281342e-03  -1.1002655202916470e-02  -1.2806990565297553e-02  -1.4207270890890500e-02  -1.5193580708110365e-02  -1.5759031832607136e-02  -1.5900195890857512e-02  -1.5617586406466525e-02  -1.4916179105020536e-02  -1.3805977065887846e-02  -1.2302622700487686e-02  -1.0428060020193350e-02  -8.2112504934860713e-03  -5.6889460868498956e-03  -2.9065232679813310e-03  8.1118020757349322e-05  3.2085861818591920e-03  6.3989560805760683e-03  9.5626487458767197e-03  1.2596227518927408e-02  1.5381105758677242e-02  1.7782158948201014e-02  1.9646240926936211e-02  2.0800577207498904e-02  2.1051104962493641e-02  2.0180473157432408e-02  1.7946720460991755e-02  1.4078865594417117e-02  8.2831722756771687e-03  2.0963100404675054e-04  -2.5330055901275748e-05  -3.0581039188041195e-03  -5.7749606739845262e-03  -8.1580522428492674e-03  -1.0192185453695912e-02  -1.1863611150061910e-02  -1.3160745023786049e-02  -1.4074401990599204e-02  -1.4598201260078412e-02  -1.4728966998880898e-02  -1.4467174905523442e-02  -1.3817434188422888e-02  -1.2789011087377780e-02  -1.1396395772352455e-02  -9.6599158277524497e-03  -7.6063993788467290e-03  -5.2698911900680512e-03  -2.6924252353420571e-03  7.5142547070478904e-05  2.9722373907822793e-03  5.9276005651884593e-03  8.8582515992274707e-03  1.1668373107855515e-02  1.4248113690750549e-02  1.6472302273779750e-02  1.8199073637660153e-02  1.9268380085393850e-02  1.9500453704300414e-02  1.8693953813791298e-02  1.6624742249361009e-02  1.3041798547856410e-02  7.6730233839470523e-03  1.9418933064905988e-04  -2.2972552604940888e-05  -2.7734819907829474e-03  -5.2374771630559506e-03  -7.3987711344442467e-03  -9.2435847811614871e-03  -1.0759448599551491e-02  -1.1935856448884402e-02  -1.2764478114098985e-02  -1.3239526674861214e-02  -1.3358121878442370e-02  -1.3120695150779091e-02  -1.2531426715767959e-02  -1.1598720391475538e-02  -1.0335717726576163e-02  -8.7608543867022486e-03  -6.8984615629504222e-03  -4.7794154223846346e-03  -2.4418377748608904e-03  6.8148677013326448e-05  2.6956069457777961e-03  5.3759104491799721e-03  8.0338018211872954e-03  1.0582381529625078e-02  1.2922022191407695e-02  1.4939202572797159e-02  1.6505261041946367e-02  1.7475045757908435e-02  1.7685520048256805e-02  1.6954082279982845e-02  1.5077455112917759e-02  1.1827980886952832e-02  6.9588848853535095e-03  1.7611588236303728e-04  -2.0334348658050780e-05  -2.4549710358915777e-03  -4.6359972036705936e-03  -6.5490848465845830e-03  -8.1820372545903103e-03  -9.5238169408522512e-03  -1.0565124305829253e-02  -1.1298585789905842e-02  -1.1719079052535834e-02  -1.1824054614782411e-02  -1.1613894357919874e-02  -1.1092298442988171e-02  -1.0266705580369101e-02  -9.1487481217889903e-03  -7.7547445503250850e-03  -6.1062318223422283e-03  -4.2305402344100336e-03  -2.1614136249456638e-03  6.0322109337275937e-05  2.3860390320026015e-03  4.7585323785238548e-03  7.1111874547650292e-03  9.3670844035085143e-03  1.1438037201725903e-02  1.3223561566560025e-02  1.4609771563000092e-02  1.5468184807895177e-02  1.5654488003827117e-02  1.5007049763995309e-02  1.3345937404188232e-02  1.0469637805485861e-02  6.1597161773241779e-03  1.5589048438715376e-04  -1.7489412607893888e-05  -2.1115012915975252e-03  -3.9873847646720428e-03  -5.6328164222232153e-03  -7.0373059668560481e-03  -8.1913601424630153e-03  -9.0869804360742389e-03  -9.7178249075767914e-03  -1.0079487872803787e-02  -1.0169776545780617e-02  -9.9890193802135516e-03  -9.5403988557738115e-03  -8.8303129484557305e-03  -7.8687665515042460e-03  -6.6697950621511532e-03  -5.2519222447938050e-03  -3.6386546696935470e-03  -1.8590151438248009e-03  5.1882303016706476e-05  2.