<?xml version="1.0"?>
<VTKFile type="UnstructuredGrid"  version="0.1"  >
<UnstructuredGrid>
<Piece  NumberOfPoints="16641" NumberOfCells="16384">
<Points>
<DataArray  type="Float64"  NumberOfComponents="3"  format="ascii">0 0 0  0.0078125 0 0  0.015625 0 0  0.0234375 0 0  0.03125 0 0  0.0390625 0 0  0.046875 0 0  0.0546875 0 0  0.0625 0 0  0.0703125 0 0  0.078125 0 0  0.0859375 0 0  0.09375 0 0  0.1015625 0 0  0.109375 0 0  0.1171875 0 0  0.125 0 0  0.1328125 0 0  0.140625 0 0  0.1484375 0 0  0.15625 0 0  0.1640625 0 0  0.171875 0 0  0.1796875 0 0  0.1875 0 0  0.1953125 0 0  0.203125 0 0  0.2109375 0 0  0.21875 0 0  0.2265625 0 0  0.234375 0 0  0.2421875 0 0  0.25 0 0  0.2578125 0 0  0.265625 0 0  0.2734375 0 0  0.28125 0 0  0.2890625 0 0  0.296875 0 0  0.3046875 0 0  0.3125 0 0  0.3203125 0 0  0.328125 0 0  0.3359375 0 0  0.34375 0 0  0.3515625 0 0  0.359375 0 0  0.3671875 0 0  0.375 0 0  0.3828125 0 0  0.390625 0 0  0.3984375 0 0  0.40625 0 0  0.4140625 0 0  0.421875 0 0  0.4296875 0 0  0.4375 0 0  0.4453125 0 0  0.453125 0 0  0.4609375 0 0  0.46875 0 0  0.4765625 0 0  0.484375 0 0  0.4921875 0 0  0.5 0 0  0.5078125 0 0  0.515625 0 0  0.5234375 0 0  0.53125 0 0  0.5390625 0 0  0.546875 0 0  0.5546875 0 0  0.5625 0 0  0.5703125 0 0  0.578125 0 0  0.5859375 0 0  0.59375 0 0  0.6015625 0 0  0.609375 0 0  0.6171875 0 0  0.625 0 0  0.6328125 0 0  0.640625 0 0  0.6484375 0 0  0.65625 0 0  0.6640625 0 0  0.671875 0 0  0.6796875 0 0  0.6875 0 0  0.6953125 0 0  0.703125 0 0  0.7109375 0 0  0.71875 0 0  0.7265625 0 0  0.734375 0 0  0.7421875 0 0  0.75 0 0  0.7578125 0 0  0.765625 0 0  0.7734375 0 0  0.78125 0 0  0.7890625 0 0  0.796875 0 0  0.8046875 0 0  0.8125 0 0  0.8203125 0 0  0.828125 0 0  0.8359375 0 0  0.84375 0 0  0.8515625 0 0  0.859375 0 0  0.8671875 0 0  0.875 0 0  0.8828125 0 0  0.890625 0 0  0.8984375 0 0  0.90625 0 0  0.9140625 0 0  0.921875 0 0  0.9296875 0 0  0.9375 0 0  0.9453125 0 0  0.953125 0 0  0.9609375 0 0  0.96875 0 0  0.9765625 0 0  0.984375 0 0  0.9921875 0 0  1 0 0  0 0.0078125 0  0.0078125 0.0078125 0  0.015625 0.0078125 0  0.0234375 0.0078125 0  0.03125 0.0078125 0  0.0390625 0.0078125 0  0.046875 0.0078125 0  0.0546875 0.0078125 0  0.0625 0.0078125 0  0.0703125 0.0078125 0  0.078125 0.0078125 0  0.0859375 0.0078125 0  0.09375 0.0078125 0  0.1015625 0.0078125 0  0.109375 0.0078125 0  0.1171875 0.0078125 0  0.125 0.0078125 0  0.1328125 0.0078125 0  0.140625 0.0078125 0  0.1484375 0.0078125 0  0.15625 0.0078125 0  0.1640625 0.0078125 0  0.171875 0.0078125 0  0.1796875 0.0078125 0  0.1875 0.0078125 0  0.1953125 0.0078125 0  0.203125 0.0078125 0  0.2109375 0.0078125 0  0.21875 0.0078125 0  0.2265625 0.0078125 0  0.234375 0.0078125 0  0.2421875 0.0078125 0  0.25 0.0078125 0  0.2578125 0.0078125 0  0.265625 0.0078125 0  0.2734375 0.0078125 0  0.28125 0.0078125 0  0.2890625 0.0078125 0  0.296875 0.0078125 0  0.3046875 0.0078125 0  0.3125 0.0078125 0  0.3203125 0.0078125 0  0.328125 0.0078125 0  0.3359375 0.0078125 0  0.34375 0.0078125 0  0.3515625 0.0078125 0  0.359375 0.0078125 0  0.3671875 0.0078125 0  0.375 0.0078125 0  0.3828125 0.0078125 0  0.390625 0.0078125 0  0.3984375 0.0078125 0  0.40625 0.0078125 0  0.4140625 0.0078125 0  0.421875 0.0078125 0  0.4296875 0.0078125 0  0.4375 0.0078125 0  0.4453125 0.0078125 0  0.453125 0.0078125 0  0.4609375 0.0078125 0  0.46875 0.0078125 0  0.4765625 0.0078125 0  0.484375 0.0078125 0  0.4921875 0.0078125 0  0.5 0.0078125 0  0.5078125 0.0078125 0  0.515625 0.0078125 0  0.5234375 0.0078125 0  0.53125 0.0078125 0  0.5390625 0.0078125 0  0.546875 0.0078125 0  0.5546875 0.0078125 0  0.5625 0.0078125 0  0.5703125 0.0078125 0  0.578125 0.0078125 0  0.5859375 0.0078125 0  0.59375 0.0078125 0  0.6015625 0.0078125 0  0.609375 0.0078125 0  0.6171875 0.0078125 0  0.625 0.0078125 0  0.6328125 0.0078125 0  0.640625 0.0078125 0  0.6484375 0.0078125 0  0.65625 0.0078125 0  0.6640625 0.0078125 0  0.671875 0.0078125 0  0.6796875 0.0078125 0  0.6875 0.0078125 0  0.6953125 0.0078125 0  0.703125 0.0078125 0  0.7109375 0.0078125 0  0.71875 0.0078125 0  0.7265625 0.0078125 0  0.734375 0.0078125 0  0.7421875 0.0078125 0  0.75 0.0078125 0  0.7578125 0.0078125 0  0.765625 0.0078125 0  0.7734375 0.0078125 0  0.78125 0.0078125 0  0.7890625 0.0078125 0  0.796875 0.0078125 0  0.8046875 0.0078125 0  0.8125 0.0078125 0  0.8203125 0.0078125 0  0.828125 0.0078125 0  0.8359375 0.0078125 0  0.84375 0.0078125 0  0.8515625 0.0078125 0  0.859375 0.0078125 0  0.8671875 0.0078125 0  0.875 0.0078125 0  0.8828125 0.0078125 0  0.890625 0.0078125 0  0.8984375 0.0078125 0  0.90625 0.0078125 0  0.9140625 0.0078125 0  0.921875 0.0078125 0  0.9296875 0.0078125 0  0.9375 0.0078125 0  0.9453125 0.0078125 0  0.953125 0.0078125 0  0.9609375 0.0078125 0  0.96875 0.0078125 0  0.9765625 0.0078125 0  0.984375 0.0078125 0  0.9921875 0.0078125 0  1 0.0078125 0  0 0.015625 0  0.0078125 0.015625 0  0.015625 0.015625 0  0.0234375 0.015625 0  0.03125 0.015625 0  0.0390625 0.015625 0  0.046875 0.015625 0  0.0546875 0.015625 0  0.0625 0.015625 0  0.0703125 0.015625 0  0.078125 0.015625 0  0.0859375 0.015625 0  0.09375 0.015625 0  0.1015625 0.015625 0  0.109375 0.015625 0  0.1171875 0.015625 0  0.125 0.015625 0  0.1328125 0.015625 0  0.140625 0.015625 0  0.1484375 0.015625 0  0.15625 0.015625 0  0.1640625 0.015625 0  0.171875 0.015625 0  0.1796875 0.015625 0  0.1875 0.015625 0  0.1953125 0.015625 0  0.203125 0.015625 0  0.2109375 0.015625 0  0.21875 0.015625 0  0.2265625 0.015625 0  0.234375 0.015625 0  0.2421875 0.015625 0  0.25 0.015625 0  0.2578125 0.015625 0  0.265625 0.015625 0  0.2734375 0.015625 0  0.28125 0.015625 0  0.2890625 0.015625 0  0.296875 0.015625 0  0.3046875 0.015625 0  0.3125 0.015625 0  0.3203125 0.015625 0  0.328125 0.015625 0  0.3359375 0.015625 0  0.34375 0.015625 0  0.3515625 0.015625 0  0.359375 0.015625 0  0.3671875 0.015625 0  0.375 0.015625 0  0.3828125 0.015625 0  0.390625 0.015625 0  0.3984375 0.015625 0  0.40625 0.015625 0  0.4140625 0.015625 0  0.421875 0.015625 0  0.4296875 0.015625 0  0.4375 0.015625 0  0.4453125 0.015625 0  0.453125 0.015625 0  0.4609375 0.015625 0  0.46875 0.015625 0  0.4765625 0.015625 0  0.484375 0.015625 0  0.4921875 0.015625 0  0.5 0.015625 0  0.5078125 0.015625 0  0.515625 0.015625 0  0.5234375 0.015625 0  0.53125 0.015625 0  0.5390625 0.015625 0  0.546875 0.015625 0  0.5546875 0.015625 0  0.5625 0.015625 0  0.5703125 0.015625 0  0.578125 0.015625 0  0.5859375 0.015625 0  0.59375 0.015625 0  0.6015625 0.015625 0  0.609375 0.015625 0  0.6171875 0.015625 0  0.625 0.015625 0  0.6328125 0.015625 0  0.640625 0.015625 0  0.6484375 0.015625 0  0.65625 0.015625 0  0.6640625 0.015625 0  0.671875 0.015625 0  0.6796875 0.015625 0  0.6875 0.015625 0  0.6953125 0.015625 0  0.703125 0.015625 0  0.7109375 0.015625 0  0.71875 0.015625 0  0.7265625 0.015625 0  0.734375 0.015625 0  0.7421875 0.015625 0  0.75 0.015625 0  0.7578125 0.015625 0  0.765625 0.015625 0  0.7734375 0.015625 0  0.78125 0.015625 0  0.7890625 0.015625 0  0.796875 0.015625 0  0.8046875 0.015625 0  0.8125 0.015625 0  0.8203125 0.015625 0  0.828125 0.015625 0  0.8359375 0.015625 0  0.84375 0.015625 0  0.8515625 0.015625 0  0.859375 0.015625 0  0.8671875 0.015625 0  0.875 0.015625 0  0.8828125 0.015625 0  0.890625 0.015625 0  0.8984375 0.015625 0  0.90625 0.015625 0  0.9140625 0.015625 0  0.921875 0.015625 0  0.9296875 0.015625 0  0.9375 0.015625 0  0.9453125 0.015625 0  0.953125 0.015625 0  0.9609375 0.015625 0  0.96875 0.015625 0  0.9765625 0.015625 0  0.984375 0.015625 0  0.9921875 0.015625 0  1 0.015625 0  0 0.0234375 0  0.0078125 0.0234375 0  0.015625 0.0234375 0  0.0234375 0.0234375 0  0.03125 0.0234375 0  0.0390625 0.0234375 0  0.046875 0.0234375 0  0.0546875 0.0234375 0  0.0625 0.0234375 0  0.0703125 0.0234375 0  0.078125 0.0234375 0  0.0859375 0.0234375 0  0.09375 0.0234375 0  0.1015625 0.0234375 0  0.109375 0.0234375 0  0.1171875 0.0234375 0  0.125 0.0234375 0  0.1328125 0.0234375 0  0.140625 0.0234375 0  0.1484375 0.0234375 0  0.15625 0.0234375 0  0.1640625 0.0234375 0  0.171875 0.0234375 0  0.1796875 0.0234375 0  0.1875 0.0234375 0  0.1953125 0.0234375 0  0.203125 0.0234375 0  0.2109375 0.0234375 0  0.21875 0.0234375 0  0.2265625 0.0234375 0  0.234375 0.0234375 0  0.2421875 0.0234375 0  0.25 0.0234375 0  0.2578125 0.0234375 0  0.265625 0.0234375 0  0.2734375 0.0234375 0  0.28125 0.0234375 0  0.2890625 0.0234375 0  0.296875 0.0234375 0  0.3046875 0.0234375 0  0.3125 0.0234375 0  0.3203125 0.0234375 0  0.328125 0.0234375 0  0.3359375 0.0234375 0  0.34375 0.0234375 0  0.3515625 0.0234375 0  0.359375 0.0234375 0  0.3671875 0.0234375 0  0.375 0.0234375 0  0.3828125 0.0234375 0  0.390625 0.0234375 0  0.3984375 0.0234375 0  0.40625 0.0234375 0  0.4140625 0.0234375 0  0.421875 0.0234375 0  0.4296875 0.0234375 0  0.4375 0.0234375 0  0.4453125 0.0234375 0  0.453125 0.0234375 0  0.4609375 0.0234375 0  0.46875 0.0234375 0  0.4765625 0.0234375 0  0.484375 0.0234375 0  0.4921875 0.0234375 0  0.5 0.0234375 0  0.5078125 0.0234375 0  0.515625 0.0234375 0  0.5234375 0.0234375 0  0.53125 0.0234375 0  0.5390625 0.0234375 0  0.546875 0.0234375 0  0.5546875 0.0234375 0  0.5625 0.0234375 0  0.5703125 0.0234375 0  0.578125 0.0234375 0  0.5859375 0.0234375 0  0.59375 0.0234375 0  0.6015625 0.0234375 0  0.609375 0.0234375 0  0.6171875 0.0234375 0  0.625 0.0234375 0  0.6328125 0.0234375 0  0.640625 0.0234375 0  0.6484375 0.0234375 0  0.65625 0.0234375 0  0.6640625 0.0234375 0  0.671875 0.0234375 0  0.6796875 0.0234375 0  0.6875 0.0234375 0  0.6953125 0.0234375 0  0.703125 0.0234375 0  0.7109375 0.0234375 0  0.71875 0.0234375 0  0.7265625 0.0234375 0  0.734375 0.0234375 0  0.7421875 0.0234375 0  0.75 0.0234375 0  0.7578125 0.0234375 0  0.765625 0.0234375 0  0.7734375 0.0234375 0  0.78125 0.0234375 0  0.7890625 0.0234375 0  0.796875 0.0234375 0  0.8046875 0.0234375 0  0.8125 0.0234375 0  0.8203125 0.0234375 0  0.828125 0.0234375 0  0.8359375 0.0234375 0  0.84375 0.0234375 0  0.8515625 0.0234375 0  0.859375 0.0234375 0  0.8671
[...]
<PointData  Scalars="u_sol"> 
<DataArray  type="Float64"  Name="u_sol"  format="ascii">1.1450868172167511e-06  -1.9361339394894067e-06  -1.1656985982130495e-05  -2.0059403427590673e-05  -2.4841386199227236e-05  -2.5532604652304062e-05  -2.1985969766730180e-05  -1.4451556570744842e-05  -3.5558511401197572e-06  9.7252315449237959e-06  2.4207042354861081e-05  3.8686808666398318e-05  5.2135811721517091e-05  6.3843070342050928e-05  7.3480892526308348e-05  8.1093976764664300e-05  8.7033953846846036e-05  9.1866207679917579e-05  9.6278293451164846e-05  1.0100257327542785e-04  1.0676630439487042e-04  1.1425762906242243e-04  1.2410735432344180e-04  1.3688123851958716e-04  1.5306610058086481e-04  1.7307320812069598e-04  1.9725950418101695e-04  2.2594653650928305e-04  2.5954282322231408e-04  2.9860587282301988e-04  3.4395958731934601e-04  3.9676890768730079e-04  4.5858110210246348e-04  5.3102836748406890e-04  6.1651336464414405e-04  7.1695831040864829e-04  8.3513714445285453e-04  9.7195038961937676e-04  1.1344631836776033e-03  1.3187135451533565e-03  1.5242715185190101e-03  1.7549449529205895e-03  2.0026133497376610e-03  2.2830151969993316e-03  2.5953370151681355e-03  2.9009802165109585e-03  3.1871208503358181e-03  3.4481959915020079e-03  3.6612734129923379e-03  3.8079985028489768e-03  3.8692769431121913e-03  3.8290350132579682e-03  3.6743104809929014e-03  3.3962820435543988e-03  2.9906718598160598e-03  2.4580558191843573e-03  1.8038739825924357e-03  1.0382390030004790e-03  1.7557811390606038e-04  -7.6581761312335440e-04  -1.7642122096365822e-03  -2.7950934319043198e-03  -3.8311369039760734e-03  -4.8431086238579016e-03  -5.7829220246424862e-03  -6.6352831656398947e-03  -7.4315139345758280e-03  -8.0981268080950290e-03  -8.5562366193167368e-03  -8.7789849858828928e-03  -8.7204933724931311e-03  -8.3530806244183561e-03  -7.6545337379404985e-03  -6.6196462644060048e-03  -5.2602763102257925e-03  -3.6097386816911509e-03  -1.7232239212824343e-03  3.2284811915857324e-04  2.4344873853438683e-03  4.5066624882549866e-03  6.4331401502615120e-03  8.1126030158236422e-03  9.4622123546447747e-03  1.0427375066597669e-02  1.0983030840970158e-02  1.1138117309831518e-02  1.0929282326942295e-02  1.0416382028814734e-02  9.6667178731954725e-03  8.7501904141207357e-03  7.8098567725043127e-03  6.8632774191334199e-03  5.8376259307879519e-03  4.8067180308345517e-03  3.8228098194951817e-03  2.8849230448825258e-03  2.0136026053797600e-03  1.2346436890553509e-03  5.7118793692926477e-04  4.2445043940425210e-05  -3.4129015706902647e-04  -5.8326256278713414e-04  -7.0129236835493407e-04  -7.2348020059189561e-04  -6.8234694947552177e-04  -6.0569274014229556e-04  -5.1571681935948732e-04  -4.2848697495340637e-04  -3.5074302778582788e-04  -2.8427325662252025e-04  -2.2925438373197396e-04  -1.8504591258927043e-04  -1.5012216648539040e-04  -1.2308647009660209e-04  -1.0254940171227795e-04  -8.7148927472760905e-05  -7.5610491955820986e-05  -6.6706331388992170e-05  -5.9321235935011460e-05  -5.2477351358994172e-05  -4.5387165666901880e-05  -3.7517550909779933e-05  -2.8642329890155535e-05  -1.8918498469781487e-05  -8.8856228715181544e-06  2.3918492832558643e-07  6.9068715395866983e-06  6.4139283726950419e-06  -3.3829111467562005e-08  4.2749662782784964e-06  -2.6415692628742399e-05  -6.9781479442554236e-05  -7.3211873865185225e-05  -5.0854868753519742e-06  1.5027684061733165e-04  3.9588277349527251e-04  7.2474644498869895e-04  1.1218197482878009e-03  1.5664107943779678e-03  2.0350443888119754e-03  2.5044941596934181e-03  2.9545202382121609e-03  3.3699112100685543e-03  3.7416134475989089e-03  4.0669063585804018e-03  4.3487703033970974e-03  4.5947152783470556e-03  4.8153170185482172e-03  5.0227020763611262e-03  5.2291595335734846e-03  5.4459633531862344e-03  5.6823901380244684e-03  5.9449294970072807e-03  6.2367142747136763e-03  6.5571666696912414e-03  6.9019909118907836e-03  7.2635155699507879e-03  7.6311342509312865e-03  7.9922458907838063e-03  8.3328109718428470e-03  8.6372616517409236e-03  8.8872381524375231e-03  9.0610411398661366e-03  9.1324561777165573e-03  9.0672026039751302e-03  8.8135020219783575e-03  8.3144234454191768e-03  7.5075508515749494e-03  6.3507086528384127e-03  4.7651625857376093e-03  2.6268648263672824e-03  -1.5785363041835083e-04  -3.6865962915967648e-03  -8.0232839348377948e-03  -1.3187128885970897e-02  -1.9216072139334798e-02  -2.6126649028227113e-02  -3.3882511003125157e-02  -4.2414470507994725e-02  -5.1615922574268433e-02  -6.1349806448151883e-02  -7.1454902586200644e-02  -8.1754386280749922e-02  -9.2063866213422801e-02  -1.0219856505708795e-01  -1.1197887979132230e-01  -1.2123424382737866e-01  -1.2980537024675434e-01  -1.3754517266172048e-01  -1.4431879524376681e-01  -1.5000288667493400e-01  -1.5448524517681442e-01  -1.5766318701846069e-01  -1.5945670961594732e-01  -1.5976499736542013e-01  -1.5846091835685172e-01  -1.5552563039735434e-01  -1.5095758450497707e-01  -1.4473241588039967e-01  -1.3687010915416503e-01  -1.2740569440409841e-01  -1.1641086021848294e-01  -1.0398956219060616e-01  -9.0285699942436529e-02  -7.5483383500968712e-02  -5.9808322220809007e-02  -4.3525339814200370e-02  -2.6933415706584047e-02  -1.0357560179891782e-02  5.8633545199051071e-03  2.1389227274422464e-02  3.5896744614036580e-02  4.9093608457006138e-02  6.0733419175748725e-02  7.0631909059313130e-02  7.8672851123193180e-02  8.4805684153920882e-02  8.9046426395522821e-02  9.1468711161202226e-02  9.2096515653922031e-02  9.1093319204908041e-02  8.8768664391445359e-02  8.5257063158730606e-02  8.0632360996146291e-02  7.5017480171026496e-02  6.8534870770346423e-02  6.1327843679896618e-02  5.3588963195900376e-02  4.5572839198498007e-02  3.7589534580410359e-02  2.9973321188865479e-02  2.3032723025106464e-02  1.6997343200500625e-02  1.1985308563710821e-02  7.9988383818490640e-03  4.9528065133784913e-03  2.7124811012751494e-03  1.1221068416396619e-03  2.8818379028809696e-05  -6.9944433492926316e-04  -1.1670493383520572e-03  -1.4546202110730950e-03  -1.6213013731843826e-03  -1.7077975773949459e-03  -1.7400059796442097e-03  -1.7322262722274362e-03  -1.6904901422105064e-03  -1.6156221465375153e-03  -1.5061315310224319e-03  -1.3607340412772591e-03  -1.1804737856001362e-03  -9.7041040858961841e-04  -7.4078386373062387e-04  -5.0759786026524341e-04  -2.9259566614156697e-04  -1.2177980767195247e-04  -2.1613457576583552e-05  5.1062927959845817e-06  3.6379221705119108e-06  -2.3824982910827068e-05  -4.2740944684611896e-05  1.5493205885860629e-05  1.9195030565971247e-04  5.0852523099456431e-04  9.6784103832255985e-04  1.5567452848490645e-03  2.2496954139736712e-03  3.0129984761567488e-03  3.8094357179863803e-03  4.6028286537774590e-03  5.3619680630538962e-03  6.0634476727209358e-03  6.6931486316742219e-03  7.2464483647028052e-03  7.7273033273169483e-03  8.1464527206138119e-03  8.5191960917231375e-03  8.8630526817115689e-03  9.1955218370307606e-03  9.5320585777681349e-03  9.8843383658226373e-03  1.0258831334854624e-02  1.0655730034752202e-02  1.1068228037141081e-02  1.1482035843017610e-02  1.1875841200894946e-02  1.2222067532658440e-02  1.2486116171394375e-02  1.2627845696589887e-02  1.2602736292575098e-02  1.2356635188976488e-02  1.1813720024767766e-02  1.0882951512592644e-02  9.4737674132112717e-03  7.4966324423193231e-03  4.8031360172199628e-03  1.2143233754221313e-03  -3.4619008210097970e-03  -9.3630634030556475e-03  -1.6569599145460686e-02  -2.5189760547892043e-02  -3.5269879832583478e-02  -4.6798500350800611e-02  -5.9706696122998199e-02  -7.3821177256382473e-02  -8.8901074235691657e-02  -1.0466756528001836e-01  -1.2081158726081243e-01  -1.3701920609336674e-01  -1.5298739271129028e-01  -1.6843765907204600e-01  -1.8312375580090975e-01  -1.9683551236500124e-01  -2.0939909012537605e-01  -2.2067489969411846e-01  -2.3055396493511165e-01  -2.3895353746890027e-01  -2.4581251436482246e-01  -2.5108702482589423e-01  -2.5474658432585479e-01  -2.5677055979055458e-01  -2.5714697446396984e-01  -2.5586464761733285e-01  -2.5294307378570913e-01  -2.4843670501386056e-01  -2.4234004138694079e-01  -2.3464924559250103e-01  -2.2538978860345552e-01  -2.1458076651810581e-01  -2.0226401916050529e-01  -1.8849376974649815e-01  -1.7334951139886384e-01  -1.5693629383382618e-01  -1.3939121750715483e-01  -1.2088529513592820e-01  -1.0162525716322686e-01  -8.1851997207090937e-02  -6.1836001824490984e-02  -4.1871105452504540e-02  -2.2259217881590857e-02  -3.3016035039130066e-03  1.4718114556337937e-02  3.1545372433786169e-02  4.6966331141860405e-02  6.0814457091641731e-02  7.2970815214814175e-02  8.3367072885861884e-02  9.1963379294222242e-02  9.8823824146886452e-02  1.0392993653994621e-01  1.0711422505029954e-01  1.0841068198480355e-01  1.0795752836531428e-01  1.0578419703188913e-01  1.0188721421911053e-01  9.6285896860058673e-02  8.9051128581186578e-02  8.0345724182564818e-02  7.0465792148589737e-02  5.9857872506831042e-02  4.9086953615418150e-02  3.8755681980128791e-02  2.9392822256033520e-02  2.1358618620253081e-02  1.4801545891581320e-02  9.6792679982746193e-03  5.8250122362714322e-03  3.0195937068960145e-03  1.0369240522289484e-03  -3.3157016730097960e-04  -1.2562428418405242e-03  -1.8661358322042104e-03  -2.2551180023912916e-03  -2.4870048783655480e-03  -2.6022348779127353e-03  -2.6240563145285959e-03  -2.5643673121745329e-03  -2.4289361683506499e-03  -2.2219710973289362e-03  -1.9498459063700447e-03  -1.6239119361888992e-03  -1.2623623459892682e-03  -8.9100606352721286e-04  -5.4258453458217761e-04  -2.5423984244457663e-04  -6.0100751240474055e-05  1.1529898992359819e-05  4.3124109521185738e-07  -6.1016624980373623e-06  3.2299121865633982e-05  1.8426316266310997e-04  4.9219119286357624e-04  9.7611632908623674e-04  1.6339486091479698e-03  2.4446820223948773e-03  3.3729323080032235e-03  4.3746072898797539e-03  5.4028881615691684e-03  6.4137665696950815e-03  7.3704670241757581e-03  8.2463963981010569e-03  9.0264448672352816e-03  9.7066628943381795e-03  1.0292699949278750e-02  1.0797485636269373e-02  1.1238436431195343e-02  1.1634517172723388e-02  1.2003413591268532e-02  1.2358940435056006e-02  1.2708789390637727e-02  1.3052531518486921e-02  1.3379797125048665e-02  1.3669393612001104e-02  1.3888596178555545e-02  1.3991407494564163e-02  1.3920841699405977e-02  1.3611754535869172e-02  1.2977188045074958e-02  1.1905261979071028e-02  1.0278669265924485e-02  7.9800787842345487e-03  4.8366563638857106e-03  6.1501444776932638e-04  -4.9264777567836178e-03  -1.1969610621011222e-02  -2.0687239512511751e-02  -3.1238634652401537e-02  -4.3722183963564101e-02  -5.8143779177610030e-02  -7.4354446459619597e-02  -9.2109052314973988e-02  -1.1107268901677662e-01  -1.3083625221299972e-01  -1.5096438564132217e-01  -1.7102792660632188e-01  -1.9063374215387283e-01  -2.0944513728781614e-01  -2.2718980533973746e-01  -2.4366269010948077e-01  -2.5872138602548617e-01  -2.7227839335984583e-01  -2.8429103282097895e-01  -2.9475102421851951e-01  -3.0367452293014424e-01  -3.1109336180798064e-01  -3.1704772948376875e-01  -3.2158036033150600e-01  -3.2473213378345972e-01  -3.2653884712380760e-01  -3.2702911351853137e-01  -3.2622242934581086e-01  -3.2413074984428819e-01  -3.2073994253885241e-01  -3.1600376036107836e-01  -3.0989815207173627e-01  -3.0240107227409257e-01  -2.9348287760846536e-01  -2.8312532082335090e-01  -2.7131376102127958e-01  -2.5805018504500576e-01  -2.4335381620349378e-01  -2.2727056015950137e-01  -2.0987764639554546e-01  -1.9129075524080189e-01  -1.7166819001108735e-01  -1.5121357317017298e-01  -1.3017462918732375e-01  -1.0883692628202972e-01  -8.7513683596383771e-02  -6.6528513512205220e-02  -4.6197290387961415e-02  -2.6802059511404075e-02  -8.5798066472091341e-03  8.2936480280219622e-03  2.3713344709768769e-02  3.7630923774637337e-02  5.0060670985451625e-02  6.1020223316643918e-02  7.0598590742795175e-02  7.8942599818085796e-02  8.5976560249522896e-02  9.1508486354033067e-02  9.5437964700481992e-02  9.7660381181709929e-02  9.8012995269566125e-02  9.6307456618947337e-02  9.2399081325786184e-02  8.6264338808451607e-02  7.8074383611953305e-02  6.8248930222699039e-02  5.7440647778908262e-02  4.6439697513142038e-02  3.6017296191937741e-02  2.6769131841062655e-02  1.9025669207215126e-02  1.2854841854754500e-02  8.1299613116021519e-03  4.6242522965845058e-03  2.0904015873336908e-03  2.9708090199365264e-04  -9.5124227693502215e-04  -1.8035884033649049e-03  -2.3672311913781443e-03  -2.7150898780538605e-03  -2.8939710041370110e-03  -2.9327480247493651e-03  -2.8494249339703881e-03  -2.6572426106692172e-03  -2.3696737158609769e-03  -2.0041800262658098e-03  -1.5846614429319930e-03  -1.1425522153602357e-03  -7.1623746059474864e-04  -3.4918045026837102e-04  -8.6602267571422235e-05  1.6509333176761602e-05  -3.8635450078365719e-06  1.6242807077135800e-05  1.2741720577935274e-04  3.9226892978565014e-04  8.4916880673093799e-04  1.5116608897582432e-03  2.3684535593129358e-03  3.3872488677415976e-03  4.5205699992295987e-03  5.7130543374159645e-03  6.9088669621526592e-03  8.0582049333107041e-03  9.1220030930105160e-03  1.0074463350403356e-02  1.0903457256103378e-02  1.1609162267926571e-02  1.2201435835246461e-02  1.2696414454351169e-02  1.3112890573198612e-02  1.3468762041493172e-02  1.3777706201457244e-02  1.4046096513601711e-02  1.4270077462262633e-02  1.4433295667259611e-02  1.4504615963974272e-02  1.4435032255771012e-02  1.4159158001841874e-02  1.3595529615187745e-02  1.2632435641864500e-02  1.1130012992752413e-02  8.9508650760623965e-03  5.9264769896991290e-03  1.8123172252929351e-03  -3.6749918060499107e-03  -1.0784370496909154e-02  -1.9755787873384865e-02  -3.0829993630505922e-02  -4.4193627767543472e-02  -5.9896767551302972e-02  -7.7828064975665967e-02  -9.7729695297513533e-02  -1.1919170169707788e-01  -1.4170824743409632e-01  -1.6472458156056513e-01  -1.8769553799865157e-01  -2.1013101770583328e-01  -2.3162455778682500e-01  -2.5186819613727573e-01  -2.7065371844262237e-01  -2.8786391404084549e-01  -3.0345718514898007e-01  -3.1744917921801374e-01  -3.2989460030724221e-01  -3.4087062146380309e-01  -3.5046335018855762e-01  -3.5875751644208315e-01  -3.6582940303639760e-01  -3.7174251094786720e-01  -3.7654542213340508e-01  -3.8027124172560206e-01  -3.8293809609022539e-01  -3.8455025491780709e-01  -3.8509944531905460e-01  -3.8456578636089700e-01  -3.8291676642002503e-01  -3.8011923136271680e-01  -3.7614556487112494e-01  -3.7095469476568366e-01  -3.6450086931310882e-01  -3.5673692097489262e-01  -3.4761186960957585e-01  -3.3707757971605523e-01  -3.2508948047667563e-01  -3.1161407000718938e-01  -2.9663389834651710e-01  -2.8015666718771592e-01  -2.6222365535137820e-01  -2.4291975300139049e-01  -2.2238218869710513e-01  -2.0080744462451766e-01  -1.7845401627621127e-01  -1.5563866162719320e-01  -1.3272531722087511e-01  -1.1010432052928007e-01  -8.8165574032212826e-02  -6.7264759350582348e-02  -4.7691232267064856e-02  -2.9643553610581991e-02  -1.3214517772272337e-02  1.5984565384595370e-03  1.4889435808695650e-02  2.6792070031864720e-02  3.7450345779132796e-02  4.7090008993450769e-02  5.5887839381016005e-02  6.3824049251624909e-02  7.0743276627745308e-02  7.6405200909611323e-02  8.0505477238120363e-02  8.2671250811938282e-02  8.2524510613105215e-02  7.9808616087442566e-02  7.4500571628670340e-02  6.6901991861566271e-02  5.7643861930418844e-02  4.7583458374400145e-02  3.7619029618719421e-02  2.8493600168888911e-02  2.0669159014206538e-02  1.4311764097353524e-02  9.3603304699395786e-03  5.6233328731846331e-03  2.8693179387782011e-03  8.7849735549595949e-04  -5.3751406574543742e-04  -1.5244204883008152e-03  -2.1873067851130826e-03  -2.5985540014079695e-03  -2.8061622623832268e-03  -2.8423820239095723e-03  -2.7307959187851507e-03  -2.4922845572465579e-03  -2.1496486514649463e-03  -1.7308025604741044e-03  -1.2706093687043557e-03  -8.1126442657448485e-04  -4.0245562120670405e-04  -1.0117175915959371e-04  1.9332559269759865e-05  -8.5442748660280433e-06  3.9836028028043614e-05  2.3224075465306274e-04  6.2559333960979680e-04  1.2508815051414700e-03  2.1109658874271507e-03  3.1804291346355373e-03  4.4106672416805593e-03  5.7377833552454257e-03  7.0922610173608331e-03  8.4082056980599451e-03  9.6308936359753121e-03  1.0721678831904507e-02  1.1659534602149749e-02  1.2439828379505139e-02  1.3070974168325025e-02  1.3569935866846874e-02  1.3957348818800310e-02  1.4252727136959811e-02  1.4470011487138452e-02  1.4613474650085169e-02  1.4674207545658029e-02  1.4626650326053906e-02  1.4424640153218822e-02  1.4000905609721904e-02  1.3264956960166671e-02  1.2089365388319789e-02  1.0316383788996856e-02  7.7816111728651232e-03  4.2727902809465796e-03  -5.0467340832248734e-04  -6.8525662833367950e-03  -1.5057574447790538e-02  -2.5430387564970913e-02  -3.8268101776150462e-02  -5.3750590826510215e-02  -7.1887690080819383e-02  -9.2497060416835614e-02  -1.1519384754444902e-01  -1.3942770003405031e-01  -1.6454682290521899e-01  -1.8988154533720694e-01  -2.1480883225882069e-01  -2.3880507489314784e-01  -2.6147529606852499e-01  -2.8256018361432733e-01  -3.0192496748521352e-01  -3.1953771632274552e-01  -3.3544228098352280e-01  -3.4973101155965852e-01  -3.6252063994187461e-01  -3.7393340597557112e-01  -3.8408405742233015e-01  -3.9307231694610945e-01  -4.0097974188067231e-01  -4.0786973922395059e-01  -4.1378946475186978e-01  -4.1877260494391455e-01  -4.2284227616009867e-01  -4.2601357414855123e-01  -4.2829550855611304e-01  -4.2969223950581659e-01  -4.3020362276341262e-01  -4.2982567884121259e-01  -4.2855132185923578e-01  -4.2636522189513582e-01  -4.2323910487737737e-01  -4.1913654620098734e-01  -4.1401068792269696e-01  -4.0780404072345816e-01  -4.0044948229743621e-01  -3.9186997370277538e-01  -3.8198138803165038e-01  -3.7069490085374329e-01  -3.5792286136210583e-01  -3.4358577034158228e-01  -3.2762274613134024e-01  -3.1000392243862107e-01  -2.9074532171574347e-01  -2.6992434353915912e-01  -2.4769426604348754e-01  -2.2429494822183929e-01  -2.0005620122666701e-01  -1.7539092122893471e-01  -1.5077451693029464e-01  -1.2671128298820311e-01  -1.0368876501175922e-01  -8.2126751513987378e-02  -6.2331344684742829e-02  -4.4462304102596641e-02  -2.8529368167780275e-02  -1.4407462841307749e-02  -1.8687496374587683e-03  9.3516004793725328e-03  1.9539841655289793e-02  2.8976092655317153e-02  3.7857389036831328e-02  4.6205060457819275e-02  5.3796028813764725e-02  6.0258486991915668e-02  6.5120594083525787e-02  6.7848968149516631e-02  6.8007119468071850e-02  6.5403024924130235e-02  6.0207808390482710e-02  5.2977497491813130e-02  4.4546798764580481e-02  3.5830514761950573e-02  2.7612690730600208e-02  2.0409934127309879e-02  1.4446653029408009e-02  9.7190652367494211e-03  6.0874375527114246e-03  3.3605729083952271e-03  1.3508886037965052e-03  -1.0458634665515066e-04  -1.1340419495211823e-03  -1.8310831210416034e-03  -2.2618024968662389e-03  -2.4720778178010869e-03  -2.4955124655353681e-03  -2.3598048243889040e-03  -2.0921035223139383e-03  -1.7230783770861202e-03  -1.2897712087485112e-03  -8.3734276996115639e-04  -4.2095576165807839e-04  -1.0677221525680752e-04  2.0435379885607580e-05  -1.3583257728429580e-05  6.4728156285851930e-05  3.4728264572736440e-04  8.8731936073804286e-04  1.7061361298649476e-03  2.7911136305637310e-03  4.0964236335497388e-03  5.5504772246436334e-03  7.0673737963166568e-03  8.5596724365415728e-03  9.9503336372353986e-03  1.1181628482455139e-02  1.2219168937953861e-02  1.3051616524464698e-02  1.3686680626385433e-02  1.4144964826081276e-02  1.4452918043913136e-02  1.4635813602791021e-02  1.4711309654398583e-02  1.4683873566700827e-02  1.4539730096863709e-02  1.4241958670096012e-02  1.3727990776795214e-02  1.2906087740307885e-02  1.1642972825379799e-02  9.7691424863616642e-03  7.0976329611121963e-03  3.3817304604857466e-03  -1.7021036199481511e-03  -8.4808477252627940e-03  -1.7283819313531363e-02  -2.8482089758085520e-02  -4.2411391170600596e-02  -5.9270851837890846e-02  -7.9067292361623909e-02  -1.0156978518819651e-01  -1.2630078079116425e-01  -1.5259103280766764e-01  -1.7967067488316082e-01  