<?xml version="1.0"?>
<VTKFile type="UnstructuredGrid"  version="0.1"  >
<UnstructuredGrid>
<Piece  NumberOfPoints="16641" NumberOfCells="16384">
<Points>
<DataArray  type="Float64"  NumberOfComponents="3"  format="ascii">0 0 0  0.0078125 0 0  0.015625 0 0  0.0234375 0 0  0.03125 0 0  0.0390625 0 0  0.046875 0 0  0.0546875 0 0  0.0625 0 0  0.0703125 0 0  0.078125 0 0  0.0859375 0 0  0.09375 0 0  0.1015625 0 0  0.109375 0 0  0.1171875 0 0  0.125 0 0  0.1328125 0 0  0.140625 0 0  0.1484375 0 0  0.15625 0 0  0.1640625 0 0  0.171875 0 0  0.1796875 0 0  0.1875 0 0  0.1953125 0 0  0.203125 0 0  0.2109375 0 0  0.21875 0 0  0.2265625 0 0  0.234375 0 0  0.2421875 0 0  0.25 0 0  0.2578125 0 0  0.265625 0 0  0.2734375 0 0  0.28125 0 0  0.2890625 0 0  0.296875 0 0  0.3046875 0 0  0.3125 0 0  0.3203125 0 0  0.328125 0 0  0.3359375 0 0  0.34375 0 0  0.3515625 0 0  0.359375 0 0  0.3671875 0 0  0.375 0 0  0.3828125 0 0  0.390625 0 0  0.3984375 0 0  0.40625 0 0  0.4140625 0 0  0.421875 0 0  0.4296875 0 0  0.4375 0 0  0.4453125 0 0  0.453125 0 0  0.4609375 0 0  0.46875 0 0  0.4765625 0 0  0.484375 0 0  0.4921875 0 0  0.5 0 0  0.5078125 0 0  0.515625 0 0  0.5234375 0 0  0.53125 0 0  0.5390625 0 0  0.546875 0 0  0.5546875 0 0  0.5625 0 0  0.5703125 0 0  0.578125 0 0  0.5859375 0 0  0.59375 0 0  0.6015625 0 0  0.609375 0 0  0.6171875 0 0  0.625 0 0  0.6328125 0 0  0.640625 0 0  0.6484375 0 0  0.65625 0 0  0.6640625 0 0  0.671875 0 0  0.6796875 0 0  0.6875 0 0  0.6953125 0 0  0.703125 0 0  0.7109375 0 0  0.71875 0 0  0.7265625 0 0  0.734375 0 0  0.7421875 0 0  0.75 0 0  0.7578125 0 0  0.765625 0 0  0.7734375 0 0  0.78125 0 0  0.7890625 0 0  0.796875 0 0  0.8046875 0 0  0.8125 0 0  0.8203125 0 0  0.828125 0 0  0.8359375 0 0  0.84375 0 0  0.8515625 0 0  0.859375 0 0  0.8671875 0 0  0.875 0 0  0.8828125 0 0  0.890625 0 0  0.8984375 0 0  0.90625 0 0  0.9140625 0 0  0.921875 0 0  0.9296875 0 0  0.9375 0 0  0.9453125 0 0  0.953125 0 0  0.9609375 0 0  0.96875 0 0  0.9765625 0 0  0.984375 0 0  0.9921875 0 0  1 0 0  0 0.0078125 0  0.0078125 0.0078125 0  0.015625 0.0078125 0  0.0234375 0.0078125 0  0.03125 0.0078125 0  0.0390625 0.0078125 0  0.046875 0.0078125 0  0.0546875 0.0078125 0  0.0625 0.0078125 0  0.0703125 0.0078125 0  0.078125 0.0078125 0  0.0859375 0.0078125 0  0.09375 0.0078125 0  0.1015625 0.0078125 0  0.109375 0.0078125 0  0.1171875 0.0078125 0  0.125 0.0078125 0  0.1328125 0.0078125 0  0.140625 0.0078125 0  0.1484375 0.0078125 0  0.15625 0.0078125 0  0.1640625 0.0078125 0  0.171875 0.0078125 0  0.1796875 0.0078125 0  0.1875 0.0078125 0  0.1953125 0.0078125 0  0.203125 0.0078125 0  0.2109375 0.0078125 0  0.21875 0.0078125 0  0.2265625 0.0078125 0  0.234375 0.0078125 0  0.2421875 0.0078125 0  0.25 0.0078125 0  0.2578125 0.0078125 0  0.265625 0.0078125 0  0.2734375 0.0078125 0  0.28125 0.0078125 0  0.2890625 0.0078125 0  0.296875 0.0078125 0  0.3046875 0.0078125 0  0.3125 0.0078125 0  0.3203125 0.0078125 0  0.328125 0.0078125 0  0.3359375 0.0078125 0  0.34375 0.0078125 0  0.3515625 0.0078125 0  0.359375 0.0078125 0  0.3671875 0.0078125 0  0.375 0.0078125 0  0.3828125 0.0078125 0  0.390625 0.0078125 0  0.3984375 0.0078125 0  0.40625 0.0078125 0  0.4140625 0.0078125 0  0.421875 0.0078125 0  0.4296875 0.0078125 0  0.4375 0.0078125 0  0.4453125 0.0078125 0  0.453125 0.0078125 0  0.4609375 0.0078125 0  0.46875 0.0078125 0  0.4765625 0.0078125 0  0.484375 0.0078125 0  0.4921875 0.0078125 0  0.5 0.0078125 0  0.5078125 0.0078125 0  0.515625 0.0078125 0  0.5234375 0.0078125 0  0.53125 0.0078125 0  0.5390625 0.0078125 0  0.546875 0.0078125 0  0.5546875 0.0078125 0  0.5625 0.0078125 0  0.5703125 0.0078125 0  0.578125 0.0078125 0  0.5859375 0.0078125 0  0.59375 0.0078125 0  0.6015625 0.0078125 0  0.609375 0.0078125 0  0.6171875 0.0078125 0  0.625 0.0078125 0  0.6328125 0.0078125 0  0.640625 0.0078125 0  0.6484375 0.0078125 0  0.65625 0.0078125 0  0.6640625 0.0078125 0  0.671875 0.0078125 0  0.6796875 0.0078125 0  0.6875 0.0078125 0  0.6953125 0.0078125 0  0.703125 0.0078125 0  0.7109375 0.0078125 0  0.71875 0.0078125 0  0.7265625 0.0078125 0  0.734375 0.0078125 0  0.7421875 0.0078125 0  0.75 0.0078125 0  0.7578125 0.0078125 0  0.765625 0.0078125 0  0.7734375 0.0078125 0  0.78125 0.0078125 0  0.7890625 0.0078125 0  0.796875 0.0078125 0  0.8046875 0.0078125 0  0.8125 0.0078125 0  0.8203125 0.0078125 0  0.828125 0.0078125 0  0.8359375 0.0078125 0  0.84375 0.0078125 0  0.8515625 0.0078125 0  0.859375 0.0078125 0  0.8671875 0.0078125 0  0.875 0.0078125 0  0.8828125 0.0078125 0  0.890625 0.0078125 0  0.8984375 0.0078125 0  0.90625 0.0078125 0  0.9140625 0.0078125 0  0.921875 0.0078125 0  0.9296875 0.0078125 0  0.9375 0.0078125 0  0.9453125 0.0078125 0  0.953125 0.0078125 0  0.9609375 0.0078125 0  0.96875 0.0078125 0  0.9765625 0.0078125 0  0.984375 0.0078125 0  0.9921875 0.0078125 0  1 0.0078125 0  0 0.015625 0  0.0078125 0.015625 0  0.015625 0.015625 0  0.0234375 0.015625 0  0.03125 0.015625 0  0.0390625 0.015625 0  0.046875 0.015625 0  0.0546875 0.015625 0  0.0625 0.015625 0  0.0703125 0.015625 0  0.078125 0.015625 0  0.0859375 0.015625 0  0.09375 0.015625 0  0.1015625 0.015625 0  0.109375 0.015625 0  0.1171875 0.015625 0  0.125 0.015625 0  0.1328125 0.015625 0  0.140625 0.015625 0  0.1484375 0.015625 0  0.15625 0.015625 0  0.1640625 0.015625 0  0.171875 0.015625 0  0.1796875 0.015625 0  0.1875 0.015625 0  0.1953125 0.015625 0  0.203125 0.015625 0  0.2109375 0.015625 0  0.21875 0.015625 0  0.2265625 0.015625 0  0.234375 0.015625 0  0.2421875 0.015625 0  0.25 0.015625 0  0.2578125 0.015625 0  0.265625 0.015625 0  0.2734375 0.015625 0  0.28125 0.015625 0  0.2890625 0.015625 0  0.296875 0.015625 0  0.3046875 0.015625 0  0.3125 0.015625 0  0.3203125 0.015625 0  0.328125 0.015625 0  0.3359375 0.015625 0  0.34375 0.015625 0  0.3515625 0.015625 0  0.359375 0.015625 0  0.3671875 0.015625 0  0.375 0.015625 0  0.3828125 0.015625 0  0.390625 0.015625 0  0.3984375 0.015625 0  0.40625 0.015625 0  0.4140625 0.015625 0  0.421875 0.015625 0  0.4296875 0.015625 0  0.4375 0.015625 0  0.4453125 0.015625 0  0.453125 0.015625 0  0.4609375 0.015625 0  0.46875 0.015625 0  0.4765625 0.015625 0  0.484375 0.015625 0  0.4921875 0.015625 0  0.5 0.015625 0  0.5078125 0.015625 0  0.515625 0.015625 0  0.5234375 0.015625 0  0.53125 0.015625 0  0.5390625 0.015625 0  0.546875 0.015625 0  0.5546875 0.015625 0  0.5625 0.015625 0  0.5703125 0.015625 0  0.578125 0.015625 0  0.5859375 0.015625 0  0.59375 0.015625 0  0.6015625 0.015625 0  0.609375 0.015625 0  0.6171875 0.015625 0  0.625 0.015625 0  0.6328125 0.015625 0  0.640625 0.015625 0  0.6484375 0.015625 0  0.65625 0.015625 0  0.6640625 0.015625 0  0.671875 0.015625 0  0.6796875 0.015625 0  0.6875 0.015625 0  0.6953125 0.015625 0  0.703125 0.015625 0  0.7109375 0.015625 0  0.71875 0.015625 0  0.7265625 0.015625 0  0.734375 0.015625 0  0.7421875 0.015625 0  0.75 0.015625 0  0.7578125 0.015625 0  0.765625 0.015625 0  0.7734375 0.015625 0  0.78125 0.015625 0  0.7890625 0.015625 0  0.796875 0.015625 0  0.8046875 0.015625 0  0.8125 0.015625 0  0.8203125 0.015625 0  0.828125 0.015625 0  0.8359375 0.015625 0  0.84375 0.015625 0  0.8515625 0.015625 0  0.859375 0.015625 0  0.8671875 0.015625 0  0.875 0.015625 0  0.8828125 0.015625 0  0.890625 0.015625 0  0.8984375 0.015625 0  0.90625 0.015625 0  0.9140625 0.015625 0  0.921875 0.015625 0  0.9296875 0.015625 0  0.9375 0.015625 0  0.9453125 0.015625 0  0.953125 0.015625 0  0.9609375 0.015625 0  0.96875 0.015625 0  0.9765625 0.015625 0  0.984375 0.015625 0  0.9921875 0.015625 0  1 0.015625 0  0 0.0234375 0  0.0078125 0.0234375 0  0.015625 0.0234375 0  0.0234375 0.0234375 0  0.03125 0.0234375 0  0.0390625 0.0234375 0  0.046875 0.0234375 0  0.0546875 0.0234375 0  0.0625 0.0234375 0  0.0703125 0.0234375 0  0.078125 0.0234375 0  0.0859375 0.0234375 0  0.09375 0.0234375 0  0.1015625 0.0234375 0  0.109375 0.0234375 0  0.1171875 0.0234375 0  0.125 0.0234375 0  0.1328125 0.0234375 0  0.140625 0.0234375 0  0.1484375 0.0234375 0  0.15625 0.0234375 0  0.1640625 0.0234375 0  0.171875 0.0234375 0  0.1796875 0.0234375 0  0.1875 0.0234375 0  0.1953125 0.0234375 0  0.203125 0.0234375 0  0.2109375 0.0234375 0  0.21875 0.0234375 0  0.2265625 0.0234375 0  0.234375 0.0234375 0  0.2421875 0.0234375 0  0.25 0.0234375 0  0.2578125 0.0234375 0  0.265625 0.0234375 0  0.2734375 0.0234375 0  0.28125 0.0234375 0  0.2890625 0.0234375 0  0.296875 0.0234375 0  0.3046875 0.0234375 0  0.3125 0.0234375 0  0.3203125 0.0234375 0  0.328125 0.0234375 0  0.3359375 0.0234375 0  0.34375 0.0234375 0  0.3515625 0.0234375 0  0.359375 0.0234375 0  0.3671875 0.0234375 0  0.375 0.0234375 0  0.3828125 0.0234375 0  0.390625 0.0234375 0  0.3984375 0.0234375 0  0.40625 0.0234375 0  0.4140625 0.0234375 0  0.421875 0.0234375 0  0.4296875 0.0234375 0  0.4375 0.0234375 0  0.4453125 0.0234375 0  0.453125 0.0234375 0  0.4609375 0.0234375 0  0.46875 0.0234375 0  0.4765625 0.0234375 0  0.484375 0.0234375 0  0.4921875 0.0234375 0  0.5 0.0234375 0  0.5078125 0.0234375 0  0.515625 0.0234375 0  0.5234375 0.0234375 0  0.53125 0.0234375 0  0.5390625 0.0234375 0  0.546875 0.0234375 0  0.5546875 0.0234375 0  0.5625 0.0234375 0  0.5703125 0.0234375 0  0.578125 0.0234375 0  0.5859375 0.0234375 0  0.59375 0.0234375 0  0.6015625 0.0234375 0  0.609375 0.0234375 0  0.6171875 0.0234375 0  0.625 0.0234375 0  0.6328125 0.0234375 0  0.640625 0.0234375 0  0.6484375 0.0234375 0  0.65625 0.0234375 0  0.6640625 0.0234375 0  0.671875 0.0234375 0  0.6796875 0.0234375 0  0.6875 0.0234375 0  0.6953125 0.0234375 0  0.703125 0.0234375 0  0.7109375 0.0234375 0  0.71875 0.0234375 0  0.7265625 0.0234375 0  0.734375 0.0234375 0  0.7421875 0.0234375 0  0.75 0.0234375 0  0.7578125 0.0234375 0  0.765625 0.0234375 0  0.7734375 0.0234375 0  0.78125 0.0234375 0  0.7890625 0.0234375 0  0.796875 0.0234375 0  0.8046875 0.0234375 0  0.8125 0.0234375 0  0.8203125 0.0234375 0  0.828125 0.0234375 0  0.8359375 0.0234375 0  0.84375 0.0234375 0  0.8515625 0.0234375 0  0.859375 0.0234375 0  0.8671
[...]
<PointData  Scalars="v_sol"> 
<DataArray  type="Float64"  Name="v_sol"  format="ascii">-1.1376461653550070e-06  -4.1810839889019753e-06  -2.9097482198210747e-06  2.0088482411920839e-06  9.0275918865868077e-06  1.6844710547908543e-05  2.4490279850245182e-05  3.1172449116927342e-05  3.6286592704547820e-05  3.9456179713034672e-05  4.0565004909706798e-05  3.9754374988177004e-05  3.7379294379809628e-05  3.3937236950389618e-05  2.9985840183900312e-05  2.6057243242365724e-05  2.2603666528399751e-05  1.9962308597039869e-05  1.8336074934343187e-05  1.7800519875586244e-05  1.8318489862840145e-05  1.9763953032398431e-05  2.1930965587995017e-05  2.4557929138891082e-05  2.7347781546583575e-05  2.9983611552405180e-05  3.2151081923484683e-05  3.3592273154902397e-05  3.4184558355232096e-05  3.3829622174446590e-05  3.2096179512507350e-05  2.8986898419342881e-05  2.4692955211343928e-05  1.9495141551153115e-05  1.1672202128584498e-05  -4.1241770501231403e-07  -1.8771855997395403e-05  -3.8850133617910690e-05  -6.4106356451332344e-05  -8.6280051701101198e-05  -1.2554151744769381e-04  -1.7401705963577299e-04  -2.3087747358921403e-04  -3.0089879552199031e-04  -3.7049762248266119e-04  -4.4049617410048334e-04  -5.2159648556863016e-04  -6.0394203543757833e-04  -6.8518699806797945e-04  -7.6097926672492574e-04  -8.2747838823513976e-04  -8.8104942350439926e-04  -9.1888622288865648e-04  -9.3907992246591800e-04  -9.4068056977145110e-04  -9.2356747652375950e-04  -8.8827841453337480e-04  -8.3580250722761881e-04  -7.6739671891927529e-04  -6.8443792076746291e-04  -5.8832066198401093e-04  -4.8037433919310166e-04  -3.6187104377382765e-04  -2.3495625386706407e-04  -1.0385679872757840e-04  4.9420467047946803e-05  2.1762321551281515e-04  3.6593392503861595e-04  5.2019762487300774e-04  6.6751620519466502e-04  8.1059020494165721e-04  9.4454914629317325e-04  1.0680406204598392e-03  1.1780005326751414e-03  1.2722525363026882e-03  1.3483378314969425e-03  1.4041455296867843e-03  1.4376906964653246e-03  1.4473244735516177e-03  1.4315964608009740e-03  1.3897034749421281e-03  1.3213907386495423e-03  1.2272965877781887e-03  1.1083352708399557e-03  9.6806676658438479e-04  8.1018300043796327e-04  6.4059484735227328e-04  4.6390255833390133e-04  2.8921445963758189e-04  1.1428539753564260e-04  -7.7576944512904931e-05  -2.0935953521329168e-04  -3.0616850443901568e-04  -4.1345553730256861e-04  -5.1060851452285571e-04  -5.9268584684199325e-04  -6.6142274116692519e-04  -7.1320350436384218e-04  -7.4254135815180681e-04  -7.4336433023909046e-04  -7.1276575298031826e-04  -6.5223099545487257e-04  -5.6887484746889652e-04  -4.7355232899771538e-04  -3.7731274858381005e-04  -2.8948521049865320e-04  -2.1354656104473018e-04  -1.5166431282431862e-04  -1.0402112069549693e-04  -6.9450013160512022e-05  -4.4667923029428665e-05  -2.7288143842637278e-05  -1.5665059618973746e-05  -8.0366855290005794e-06  -3.0506145878425468e-06  4.0302161839051105e-07  3.1427748987309416e-06  5.7220658940269551e-06  8.4408715368816283e-06  1.1364357975996575e-05  1.4365268851388737e-05  1.7148871241540581e-05  1.9297866851927697e-05  2.0317964087917720e-05  1.9683842968304702e-05  1.6926583272005056e-05  1.1749148346298477e-05  5.1403686488833526e-06  -3.5483264310701187e-08  1.8995664791629988e-06  2.6292986514285800e-05  2.0721246783661093e-05  -6.1148886463317771e-06  -4.3537651020653165e-05  -8.4987698021321277e-05  -1.2547614641013487e-04  -1.6086886438620071e-04  -1.8793372848580430e-04  -2.0463005482033132e-04  -2.1032204355529363e-04  -2.0578065791765045e-04  -1.9294592876154586e-04  -1.7452488109296569e-04  -1.5352433596359976e-04  -1.3280118359525303e-04  -1.1475228106098163e-04  -1.0113326976856954e-04  -9.2984665801019788e-05  -9.0674861999865184e-05  -9.3996844421747342e-05  -1.0227512695743616e-04  -1.1444595313859258e-04  -1.2915496987934993e-04  -1.4485324382460641e-04  -1.5991067024185928e-04  -1.7276801038456949e-04  -1.8211662935475019e-04  -1.8718213587848727e-04  -1.8751398168034651e-04  -1.8215187480608857e-04  -1.7088832131590670e-04  -1.5347060278246501e-04  -1.2971514249301809e-04  -9.5387058126468618e-05  -4.3353990854223604e-05  3.3673849142928411e-05  1.2749239830876289e-04  2.4030024446844878e-04  3.6582047923497673e-04  5.4703473830686612e-04  7.8047087446535268e-04  1.0519167646419268e-03  1.3579292292499384e-03  1.6909144099981606e-03  2.0576129164918242e-03  2.4530291953540314e-03  2.8632924082510960e-03  3.2726201741498108e-03  3.6635771822754082e-03  4.0184187408946540e-03  4.3208268038478839e-03  4.5573897970819640e-03  4.7181571005242050e-03  4.7967287529348925e-03  4.7898619507963066e-03  4.6968774409665145e-03  4.5189706112612063e-03  4.2585633742228107e-03  3.9187592819616909e-03  3.5029624246000852e-03  3.0146789706228289e-03  2.4573290070297560e-03  1.8334498497437409e-03  1.1442961518205170e-03  3.9733265932703809e-04  -4.0004061084920320e-04  -1.2452489276289882e-03  -2.1275415283427018e-03  -3.0316760116638340e-03  -3.9453027784376255e-03  -4.8482291307089887e-03  -5.7185207548597055e-03  -6.5291176471133560e-03  -7.2505459314637271e-03  -7.8512825206412135e-03  -8.3003445764570586e-03  -8.5696265126026395e-03  -8.6369986644537870e-03  -8.4895431853421414e-03  -8.1261749719355909e-03  -7.5541635461744026e-03  -6.8023303583799261e-03  -5.9015855053470168e-03  -4.8981091662301836e-03  -3.8400456905610661e-03  -2.7742784986206689e-03  -1.7410059414870364e-03  -7.7227874900810439e-04  1.0824158495610386e-04  9.0640376397557135e-04  1.5869019444007791e-03  2.1283081376268611e-03  2.6036637252147593e-03  3.0284083873597998e-03  3.3845897345691858e-03  3.6627515520338814e-03  3.8475782990228212e-03  3.9154475326744331e-03  3.8431728947281121e-03  3.6226293258260003e-03  3.2676587488592386e-03  2.8157853411838528e-03  2.3192746439489030e-03  1.8302625343097467e-03  1.3880479297627038e-03  1.0138323362857405e-03  7.1326749328174137e-04  4.8329587241005252e-04  3.1612802759323997e-04  1.9796413322172138e-04  1.1658660423054555e-04  6.3001566931655906e-05  2.8697877916713885e-05  6.8163378665001156e-06  -8.0922132097783913e-06  -2.0110479285778805e-05  -3.1958834413354819e-05  -4.5072362679884651e-05  -5.9709250979307846e-05  -7.5113539903251335e-05  -8.9671769816446187e-05  -1.0112136045937136e-04  -1.0678003031613383e-04  -1.0379246753316049e-04  -8.9382996342122662e-05  -6.1463487843084821e-05  -2.1750536574109797e-05  6.4402124436371391e-06  1.1545699718385476e-05  7.2034002281282024e-05  3.4912016985884745e-05  -7.2648417351710577e-05  -2.1927976615601936e-04  -3.8071026255226040e-04  -5.3732595167474645e-04  -6.7303784060157871e-04  -7.7571307589907341e-04  -8.3803548353191600e-04  -8.5803878083915168e-04  -8.3891045700242928e-04  -7.8805089647722545e-04  -7.1558569650894907e-04  -6.3271317655990832e-04  -5.5018300772345988e-04  -4.7707985591276649e-04  -4.2008128166056390e-04  -3.8319067440764274e-04  -3.6779433017982549e-04  -3.7296165787640911e-04  -3.9577858464849932e-04  -4.3170781622007686e-04  -4.7493156152118632e-04  -5.1873345202159773e-04  -5.5594752142989481e-04  -5.7974511009909412e-04  -5.8398325502164480e-04  -5.6268223234362243e-04  -5.1176584354741764e-04  -4.3016762467554368e-04  -3.1271394939832146e-04  -1.4702382519474533e-04  8.1428107261294079e-05  3.7415262076137898e-04  7.4181403412313155e-04  1.2114872961778147e-03  1.8263679118004363e-03  2.5762318370432138e-03  3.4602775542194458e-03  4.4997776690580710e-03  5.7091957381910355e-03  7.0659334063177676e-03  8.5282039794203589e-03  1.0038788143564081e-02  1.1552848453799119e-02  1.3024809751786572e-02  1.4383616185606319e-02  1.5569198897665729e-02  1.6531125887323823e-02  1.7230736331032327e-02  1.7642916318099323e-02  1.7755882493254223e-02  1.7569721055210343e-02  1.7093989669269935e-02  1.6344999422936230e-02  1.5343132330617772e-02  1.4110523334063839e-02  1.2669246726801114e-02  1.1040077276519936e-02  9.2418046639561879e-03  7.2910399484768995e-03  5.2024895808114782e-03  2.9901250586862891e-03  6.6963042002142514e-04  -1.7510520938860835e-03  -4.2471384383673044e-03  -6.7867707146105107e-03  -9.3655458172745756e-03  -1.1951499930243178e-02  -1.4512566673178578e-02  -1.7006444656161912e-02  -1.9382718356962026e-02  -2.1583004736224636e-02  -2.3541962746415762e-02  -2.5190311570912935e-02  -2.6458421383939262e-02  -2.7281640133127061e-02  -2.7606198335850460e-02  -2.7395537314528959e-02  -2.6636004399906561e-02  -2.5338757735946491e-02  -2.3547080434660764e-02  -2.1326028224759597e-02  -1.8763287337371877e-02  -1.5968743194770565e-02  -1.3043643561510007e-02  -1.0090482539264716e-02  -7.1978351103633605e-03  -4.4211638928522839e-03  -1.7862822936684920e-03  6.5418862407029869e-04  2.8925070264956775e-03  4.9272626200928980e-03  6.7934590277360764e-03  8.5220294199024899e-03  1.0095915607895268e-02  1.1455316898392237e-02  1.2504796312749061e-02  1.3130629402026700e-02  1.3226081547409648e-02  1.2737803324351432e-02  1.1699138782495531e-02  1.0236653150475897e-02  8.5412206820376854e-03  6.8149396585688287e-03  5.2184988902182717e-03  3.8506141662552292e-03  2.7477766357942145e-03  1.9007300679616131e-03  1.2757771659082193e-03  8.3129752978654162e-04  5.2315013480080941e-04  3.1354390866415504e-04  1.7082651605835865e-04  6.9506859240488474e-05  -9.4951490895044984e-06  -7.9314608488528885e-05  -1.4747040103281058e-04  -2.1644074925288663e-04  -2.8440013163804549e-04  -3.4603946209605855e-04  -3.9347041367288884e-04  -4.1724857132793022e-04  -4.0753339144225547e-04  -3.5561583174063545e-04  -2.5690977047597506e-04  -1.2097677059824736e-04  7.2066677718713733e-06  2.0472465324135194e-05  9.0399360730111336e-05  -1.1930248386317813e-05  -2.3926980829643720e-04  -5.3770466417613723e-04  -8.6152736831746405e-04  -1.1718562032349950e-03  -1.4369004886411482e-03  -1.6333836782399622e-03  -1.7480828310254600e-03  -1.7784158577671592e-03  -1.7316845583522508e-03  -1.6230205454657301e-03  -1.4724957032811641e-03  -1.3019312765740665e-03  -1.1320423015991003e-03  -9.8019025734269460e-04  -8.5901793724106861e-04  -7.7585873790373371e-04  -7.3281166462231030e-04  -7.2720966509945222e-04  -7.5222683695280073e-04  -7.9753271349932602e-04  -8.4995483868410978e-04  -8.9442669488372611e-04  -9.1462696008318654e-04  -8.9311856376627567e-04  -8.1480203363883791e-04  -6.6862873012754154e-04  -4.3899847033577333e-04  -1.0430189779278031e-04  3.4560860598870894e-04  9.2481594168877400e-04  1.6711656252254572e-03  2.6401947029454130e-03  3.8496518119463603e-03  5.3262548988938455e-03  7.1176662029752008e-03  9.2435575483146414e-03  1.1683398992559043e-02  1.4372429013222819e-02  1.7264715491001968e-02  2.0266676231450335e-02  2.3244944198205539e-02  2.6075118064226393e-02  2.8630120138349809e-02  3.0796074185445603e-02  3.2489852353669225e-02  3.3652191112750605e-02  3.4255312360034679e-02  3.4297887245590290e-02  3.3800796635248466e-02  3.2801120754777813e-02  3.1346267743410774e-02  2.9488592283628705e-02  2.7280963533629639e-02  2.4773427387922691e-02  2.2010968354969223e-02  1.9032263824550612e-02  1.5869264771903473e-02  1.2547428086273314e-02  9.0864584466646536e-03  5.5015217567646003e-03  1.8049480126298230e-03  -1.9925163814680930e-03  -5.8705392836136405e-03  -9.8174966301469418e-03  -1.3834607120882133e-02  -1.7886915413060839e-02  -2.1949748364660005e-02  -2.5978233233763713e-02  -2.9919557526326898e-02  -3.3705308879400139e-02  -3.7254373985262053e-02  -4.0473036948987878e-02  -4.3258463903613473e-02  -4.5503688677919180e-02  -4.7104777442400832e-02  -4.7969830350117128e-02  -4.8028929064518361e-02  -4.7243719499974531e-02  -4.5616419612204327e-02  -4.3192006495734792e-02  -4.0060585910132486e-02  -3.6345993241852573e-02  -3.2204514152264420e-02  -2.7792938982419017e-02  -2.3268111893996326e-02  -1.8761398983966414e-02  -1.4376152181338869e-02  -1.0189538689336737e-02  -6.1699558957971998e-03  -2.3035360979521110e-03  1.4067057085947025e-03  4.9931252972728749e-03  8.4873454847180299e-03  1.1892312539268054e-02  1.5157887943149760e-02  1.8150264476278585e-02  2.0642872569332910e-02  2.2367459634460365e-02  2.3073054968649774e-02  2.2616954804144627e-02  2.1037734282746235e-02  1.8570031068361199e-02  1.5585320700622343e-02  1.2484969118972941e-02  9.5955008254193525e-03  7.1139592412680086e-03  5.1124340285092435e-03  3.5761574341849835e-03  2.4423617917938576e-03  1.6306371495632204e-03  1.0599645781052367e-03  6.5853595816591003e-04  3.6831503623273884e-04  1.4467383444699501e-04  -4.3477251344154925e-05  -2.1508899865112390e-04  -3.7825252783128891e-04  -5.3184033455073900e-04  -6.6740717526161790e-04  -7.7118816866548492e-04  -8.2631277245617167e-04  -8.1533573938299302e-04  -7.2348527519078189e-04  -5.4399580519485949e-04  -2.8831137258804562e-04  1.3428289581845751e-06  2.7676495331366788e-05  6.2546784788672545e-05  -1.4356387543765844e-04  -5.2835532368972183e-04  -1.0133411349633251e-03  -1.5287211147937446e-03  -2.0135993592511267e-03  -2.4184556049358643e-03  -2.7082815237893794e-03  -2.8647999818351721e-03  -2.8869087787202746e-03  -2.7887577274301220e-03  -2.5960325858113051e-03  -2.3412056737550607e-03  -2.0585028624236245e-03  -1.7795504056466868e-03  -1.5301137264382154e-03  -1.3281747723474504e-03  -1.1831693625163871e-03  -1.0961176791945966e-03  -1.0602858749249057e-03  -1.0620873364584893e-03  -1.0822073258339561e-03  -1.0962615911948991e-03  -1.0751897359757075e-03  -9.8901836208591673e-04  -8.0889549142488029e-04  -4.9975581838896115e-04  -2.5993030653015418e-05  6.3352944031089395e-04  1.5106377559047290e-03  2.6669587052116166e-03  4.1493630220158541e-03  6.0004984096285272e-03  8.2962544102047741e-03  1.1095728632722146e-02  1.4403842206091654e-02  1.8188704559037743e-02  2.2406581058196973e-02  2.6926034393498759e-02  3.1585461474913978e-02  3.6177830545505010e-02  4.0495179031852888e-02  4.4346138309275106e-02  4.7565946986152914e-02  5.0038954945423160e-02  5.1700242788113630e-02  5.2530437816226037e-02  5.2551148392015412e-02  5.1813867497403833e-02  5.0390820679763589e-02  4.8364854601982595e-02  4.5821701529682547e-02  4.2843736258983953e-02  3.9505814409979960e-02  3.5872738266389800e-02  3.1998150104176351e-02  2.7924463476295746e-02  2.3683541382500752e-02  1.9297853521114856e-02  1.4781926584000533e-02  1.0143950155043113e-02  5.3874189498750533e-03  5.1270923481170879e-04  -4.4809362687418608e-03  -9.5963920002157550e-03  -1.4827377072724286e-02  -2.0153309702272054e-02  -2.5560360554469419e-02  -3.1013489534725106e-02  -3.6469749247126308e-02  -4.1866179193541617e-02  -4.7123179284697704e-02  -5.2140399124837811e-02  -5.6798708746918294e-02  -6.0961894905360407e-02  -6.4482170502987532e-02  -6.7208206246613389e-02  -6.8996454080008832e-02  -6.9724951125268095e-02  -6.9308555633925947e-02  -6.7712959024019512e-02  -6.4966658055975665e-02  -6.1164466720793238e-02  -5.6466227262783560e-02  -5.1079515504452659e-02  -4.5242951478143972e-02  -3.9194291345013656e-02  -3.3147040996018715e-02  -2.7269225746160586e-02  -2.1659037383854236e-02  -1.6386718598201622e-02  -1.1405731789400039e-02  -6.5799440742538313e-03  -1.8177421063363677e-03  2.9674418125786883e-03  7.8589061864648129e-03  1.2857753427682138e-02  1.7853619381450615e-02  2.2614674683381283e-02  2.6750876266593303e-02  2.9797107756132913e-02  3.1325796566629649e-02  3.1091090948886412e-02  2.9141948535066457e-02  2.5835380589726398e-02  2.1735095559074769e-02  1.7440546631797459e-02  1.3431929809938572e-02  9.9958051995434147e-03  7.2316894203762333e-03  5.1118222890724685e-03  3.5424730189561699e-03  2.4069266266847208e-03  1.5897538381019741e-03  9.9072462892496366e-04  5.3147815770335379e-04  1.5526565607960904e-04  -1.7386387960288864e-04  -4.7384557032757160e-04  -7.4728708416906778e-04  -9.8459115635074587e-04  -1.1673476862074175e-03  -1.2719132561346245e-03  -1.2733968031118626e-03  -1.1503538046833089e-03  -8.9071208014261378e-04  -4.9875121032022789e-04  -6.5593151402662863e-06  3.4021431243636041e-05  -1.8911978586854358e-05  -3.7508089504374557e-04  -9.5815576617465305e-04  -1.6635406912093092e-03  -2.3941765169181923e-03  -3.0644370672223758e-03  -3.6057543158430692e-03  -3.9718640597931256e-03  -4.1419525163474222e-03  -4.1200303243223288e-03  -3.9315555456498836e-03  -3.6169262936619189e-03  -3.2241680388216992e-03  -2.8016278501383734e-03  -2.3920523564702149e-03  -2.0284333485365512e-03  -1.7317908629548996e-03  -1.5104513840914684e-03  -1.3605089388851127e-03  -1.2669327621106694e-03  -1.2045365825964947e-03  -1.1385833982945884e-03  -1.0279943690441181e-03  -8.2704394459038070e-04  -4.7963715298765460e-04  7.2470283600576660e-05  8.7541261797430682e-04  1.9892962213734450e-03  3.4919041953588243e-03  5.4388634957716281e-03  7.9074165573300766e-03  1.0995552405271248e-02  1.4765825602363107e-02  1.9238219343808958e-02  2.4409435555208671e-02  3.0184761638706013e-02  3.6390512633430766e-02  4.2775234831432071e-02  4.9060888091581482e-02  5.4951023772388696e-02  6.0183931018171148e-02  6.4550801659933502e-02  6.7909993852674724e-02  7.0191948101857388e-02  7.1391481045540162e-02  7.1555571490511366e-02  7.0768630886045319e-02  6.9136683904188478e-02  6.6774742916830387e-02  6.3796485300104941e-02  6.0307419118303111e-02  5.6400634387560607e-02  5.2154995113942421e-02  4.7634849539619280e-02  4.2890821693457683e-02  3.7961126742447483e-02  3.2873135625486834e-02  2.7644970355733992e-02  2.2287049664874735e-02  1.6803548158340714e-02  1.1193772085247472e-02  5.4534221371338176e-03  -4.2442844886371353e-04  -6.4474233925658321e-03  -1.2614955864976029e-02  -1.8927655913066960e-02  -2.5383730582327260e-02  -3.1967629476634347e-02  -3.8656373144901841e-02  -4.5408868042277853e-02  -5.2167113595657164e-02  -5.8849736601513769e-02  -6.5351252870769982e-02  -7.1539426312279053e-02  -7.7256488139302609e-02  -8.2322105771026541e-02  -8.6540565439056458e-02  -8.9711853111513917e-02  -9.1647187063297622e-02  -9.2188063029304809e-02  -9.1227489822447883e-02  -8.8729861659183798e-02  -8.4747145442265956e-02  -7.9424882034315164e-02  -7.2998387562549283e-02  -6.5771048576274041e-02  -5.8083856323942508e-02  -5.0273232688218379e-02  -4.2630405238491792e-02  -3.5372023626868636e-02  -2.8604738832887271e-02  -2.2347967683906157e-02  -1.6537741843794543e-02  -1.0989763979552251e-02  -5.4844215297523476e-03  1.7618231824271759e-04  6.1574529363965635e-03  1.2495496935007644e-02  1.9019730153523463e-02  2.5378183233229282e-02  3.1001431123633998e-02  3.5219540018062753e-02  3.7444110661565257e-02  3.7363292084503244e-02  3.5077021414305035e-02  3.1085381366730801e-02  2.6129823039102704e-02  2.0965742796111679e-02  1.6174602514060242e-02  1.2087706797243455e-02  8.8101089801979806e-03  6.2939182223106776e-03  4.4166982565673266e-03  3.0334496027131209e-03  2.0056531230225982e-03  1.2169744269322695e-03  5.8054567899649880e-04  3.8038478078470188e-05  -4.4249406010870337e-04  -8.7090311307063404e-04  -1.2391800404091943e-03  -1.5261727170320350e-03  -1.7025418271435036e-03  -1.7360219842761622e-03  -1.5970510283463983e-03  -1.2645002494508432e-03  -7.3033895099796394e-04  -1.5504691712308240e-05  4.0315619034250884e-05  -1.5807584297053130e-04  -7.1897485663927378e-04  -1.5485101518155984e-03  -2.5117753198974557e-03  -3.4798895213674912e-03  -4.3390725413094272e-03  -5.0005267958133180e-03  -5.4086690088112326e-03  -5.5443230138827616e-03  -5.4229422932472347e-03  -5.0878843271079726e-03  -4.6000776496926037e-03  -4.0270143780656454e-03  -3.4327270792031146e-03  -2.8702789652005423e-03  -2.3770789381507983e-03  -1.9726705544262607e-03  -1.6588153207637902e-03  -1.4201812351098228e-03  -1.2254759286255753e-03  -1.0302267919386158e-03  -7.7897873371666278e-04  -4.0081481393838695e-04  1.8479579506826624e-04  1.0537729758057089e-03  2.2978009343891858e-03  4.0234835290906676e-03  6.3146428281343012e-03  9.2796690822603677e-03  1.3032226542653442e-02  1.7647983763782588e-02  2.3186113288397488e-02  2.9645869310831532e-02  3.6916698165212376e-02  4.4772786438662220e-02  5.2902770658496058e-02  6.0931931003879516e-02  