<?xml version="1.0"?>
<VTKFile type="UnstructuredGrid"  version="0.1"  >
<UnstructuredGrid>
<Piece  NumberOfPoints="16641" NumberOfCells="16384">
<Points>
<DataArray  type="Float64"  NumberOfComponents="3"  format="ascii">0 0 0  0.0078125 0 0  0.015625 0 0  0.0234375 0 0  0.03125 0 0  0.0390625 0 0  0.046875 0 0  0.0546875 0 0  0.0625 0 0  0.0703125 0 0  0.078125 0 0  0.0859375 0 0  0.09375 0 0  0.1015625 0 0  0.109375 0 0  0.1171875 0 0  0.125 0 0  0.1328125 0 0  0.140625 0 0  0.1484375 0 0  0.15625 0 0  0.1640625 0 0  0.171875 0 0  0.1796875 0 0  0.1875 0 0  0.1953125 0 0  0.203125 0 0  0.2109375 0 0  0.21875 0 0  0.2265625 0 0  0.234375 0 0  0.2421875 0 0  0.25 0 0  0.2578125 0 0  0.265625 0 0  0.2734375 0 0  0.28125 0 0  0.2890625 0 0  0.296875 0 0  0.3046875 0 0  0.3125 0 0  0.3203125 0 0  0.328125 0 0  0.3359375 0 0  0.34375 0 0  0.3515625 0 0  0.359375 0 0  0.3671875 0 0  0.375 0 0  0.3828125 0 0  0.390625 0 0  0.3984375 0 0  0.40625 0 0  0.4140625 0 0  0.421875 0 0  0.4296875 0 0  0.4375 0 0  0.4453125 0 0  0.453125 0 0  0.4609375 0 0  0.46875 0 0  0.4765625 0 0  0.484375 0 0  0.4921875 0 0  0.5 0 0  0.5078125 0 0  0.515625 0 0  0.5234375 0 0  0.53125 0 0  0.5390625 0 0  0.546875 0 0  0.5546875 0 0  0.5625 0 0  0.5703125 0 0  0.578125 0 0  0.5859375 0 0  0.59375 0 0  0.6015625 0 0  0.609375 0 0  0.6171875 0 0  0.625 0 0  0.6328125 0 0  0.640625 0 0  0.6484375 0 0  0.65625 0 0  0.6640625 0 0  0.671875 0 0  0.6796875 0 0  0.6875 0 0  0.6953125 0 0  0.703125 0 0  0.7109375 0 0  0.71875 0 0  0.7265625 0 0  0.734375 0 0  0.7421875 0 0  0.75 0 0  0.7578125 0 0  0.765625 0 0  0.7734375 0 0  0.78125 0 0  0.7890625 0 0  0.796875 0 0  0.8046875 0 0  0.8125 0 0  0.8203125 0 0  0.828125 0 0  0.8359375 0 0  0.84375 0 0  0.8515625 0 0  0.859375 0 0  0.8671875 0 0  0.875 0 0  0.8828125 0 0  0.890625 0 0  0.8984375 0 0  0.90625 0 0  0.9140625 0 0  0.921875 0 0  0.9296875 0 0  0.9375 0 0  0.9453125 0 0  0.953125 0 0  0.9609375 0 0  0.96875 0 0  0.9765625 0 0  0.984375 0 0  0.9921875 0 0  1 0 0  0 0.0078125 0  0.0078125 0.0078125 0  0.015625 0.0078125 0  0.0234375 0.0078125 0  0.03125 0.0078125 0  0.0390625 0.0078125 0  0.046875 0.0078125 0  0.0546875 0.0078125 0  0.0625 0.0078125 0  0.0703125 0.0078125 0  0.078125 0.0078125 0  0.0859375 0.0078125 0  0.09375 0.0078125 0  0.1015625 0.0078125 0  0.109375 0.0078125 0  0.1171875 0.0078125 0  0.125 0.0078125 0  0.1328125 0.0078125 0  0.140625 0.0078125 0  0.1484375 0.0078125 0  0.15625 0.0078125 0  0.1640625 0.0078125 0  0.171875 0.0078125 0  0.1796875 0.0078125 0  0.1875 0.0078125 0  0.1953125 0.0078125 0  0.203125 0.0078125 0  0.2109375 0.0078125 0  0.21875 0.0078125 0  0.2265625 0.0078125 0  0.234375 0.0078125 0  0.2421875 0.0078125 0  0.25 0.0078125 0  0.2578125 0.0078125 0  0.265625 0.0078125 0  0.2734375 0.0078125 0  0.28125 0.0078125 0  0.2890625 0.0078125 0  0.296875 0.0078125 0  0.3046875 0.0078125 0  0.3125 0.0078125 0  0.3203125 0.0078125 0  0.328125 0.0078125 0  0.3359375 0.0078125 0  0.34375 0.0078125 0  0.3515625 0.0078125 0  0.359375 0.0078125 0  0.3671875 0.0078125 0  0.375 0.0078125 0  0.3828125 0.0078125 0  0.390625 0.0078125 0  0.3984375 0.0078125 0  0.40625 0.0078125 0  0.4140625 0.0078125 0  0.421875 0.0078125 0  0.4296875 0.0078125 0  0.4375 0.0078125 0  0.4453125 0.0078125 0  0.453125 0.0078125 0  0.4609375 0.0078125 0  0.46875 0.0078125 0  0.4765625 0.0078125 0  0.484375 0.0078125 0  0.4921875 0.0078125 0  0.5 0.0078125 0  0.5078125 0.0078125 0  0.515625 0.0078125 0  0.5234375 0.0078125 0  0.53125 0.0078125 0  0.5390625 0.0078125 0  0.546875 0.0078125 0  0.5546875 0.0078125 0  0.5625 0.0078125 0  0.5703125 0.0078125 0  0.578125 0.0078125 0  0.5859375 0.0078125 0  0.59375 0.0078125 0  0.6015625 0.0078125 0  0.609375 0.0078125 0  0.6171875 0.0078125 0  0.625 0.0078125 0  0.6328125 0.0078125 0  0.640625 0.0078125 0  0.6484375 0.0078125 0  0.65625 0.0078125 0  0.6640625 0.0078125 0  0.671875 0.0078125 0  0.6796875 0.0078125 0  0.6875 0.0078125 0  0.6953125 0.0078125 0  0.703125 0.0078125 0  0.7109375 0.0078125 0  0.71875 0.0078125 0  0.7265625 0.0078125 0  0.734375 0.0078125 0  0.7421875 0.0078125 0  0.75 0.0078125 0  0.7578125 0.0078125 0  0.765625 0.0078125 0  0.7734375 0.0078125 0  0.78125 0.0078125 0  0.7890625 0.0078125 0  0.796875 0.0078125 0  0.8046875 0.0078125 0  0.8125 0.0078125 0  0.8203125 0.0078125 0  0.828125 0.0078125 0  0.8359375 0.0078125 0  0.84375 0.0078125 0  0.8515625 0.0078125 0  0.859375 0.0078125 0  0.8671875 0.0078125 0  0.875 0.0078125 0  0.8828125 0.0078125 0  0.890625 0.0078125 0  0.8984375 0.0078125 0  0.90625 0.0078125 0  0.9140625 0.0078125 0  0.921875 0.0078125 0  0.9296875 0.0078125 0  0.9375 0.0078125 0  0.9453125 0.0078125 0  0.953125 0.0078125 0  0.9609375 0.0078125 0  0.96875 0.0078125 0  0.9765625 0.0078125 0  0.984375 0.0078125 0  0.9921875 0.0078125 0  1 0.0078125 0  0 0.015625 0  0.0078125 0.015625 0  0.015625 0.015625 0  0.0234375 0.015625 0  0.03125 0.015625 0  0.0390625 0.015625 0  0.046875 0.015625 0  0.0546875 0.015625 0  0.0625 0.015625 0  0.0703125 0.015625 0  0.078125 0.015625 0  0.0859375 0.015625 0  0.09375 0.015625 0  0.1015625 0.015625 0  0.109375 0.015625 0  0.1171875 0.015625 0  0.125 0.015625 0  0.1328125 0.015625 0  0.140625 0.015625 0  0.1484375 0.015625 0  0.15625 0.015625 0  0.1640625 0.015625 0  0.171875 0.015625 0  0.1796875 0.015625 0  0.1875 0.015625 0  0.1953125 0.015625 0  0.203125 0.015625 0  0.2109375 0.015625 0  0.21875 0.015625 0  0.2265625 0.015625 0  0.234375 0.015625 0  0.2421875 0.015625 0  0.25 0.015625 0  0.2578125 0.015625 0  0.265625 0.015625 0  0.2734375 0.015625 0  0.28125 0.015625 0  0.2890625 0.015625 0  0.296875 0.015625 0  0.3046875 0.015625 0  0.3125 0.015625 0  0.3203125 0.015625 0  0.328125 0.015625 0  0.3359375 0.015625 0  0.34375 0.015625 0  0.3515625 0.015625 0  0.359375 0.015625 0  0.3671875 0.015625 0  0.375 0.015625 0  0.3828125 0.015625 0  0.390625 0.015625 0  0.3984375 0.015625 0  0.40625 0.015625 0  0.4140625 0.015625 0  0.421875 0.015625 0  0.4296875 0.015625 0  0.4375 0.015625 0  0.4453125 0.015625 0  0.453125 0.015625 0  0.4609375 0.015625 0  0.46875 0.015625 0  0.4765625 0.015625 0  0.484375 0.015625 0  0.4921875 0.015625 0  0.5 0.015625 0  0.5078125 0.015625 0  0.515625 0.015625 0  0.5234375 0.015625 0  0.53125 0.015625 0  0.5390625 0.015625 0  0.546875 0.015625 0  0.5546875 0.015625 0  0.5625 0.015625 0  0.5703125 0.015625 0  0.578125 0.015625 0  0.5859375 0.015625 0  0.59375 0.015625 0  0.6015625 0.015625 0  0.609375 0.015625 0  0.6171875 0.015625 0  0.625 0.015625 0  0.6328125 0.015625 0  0.640625 0.015625 0  0.6484375 0.015625 0  0.65625 0.015625 0  0.6640625 0.015625 0  0.671875 0.015625 0  0.6796875 0.015625 0  0.6875 0.015625 0  0.6953125 0.015625 0  0.703125 0.015625 0  0.7109375 0.015625 0  0.71875 0.015625 0  0.7265625 0.015625 0  0.734375 0.015625 0  0.7421875 0.015625 0  0.75 0.015625 0  0.7578125 0.015625 0  0.765625 0.015625 0  0.7734375 0.015625 0  0.78125 0.015625 0  0.7890625 0.015625 0  0.796875 0.015625 0  0.8046875 0.015625 0  0.8125 0.015625 0  0.8203125 0.015625 0  0.828125 0.015625 0  0.8359375 0.015625 0  0.84375 0.015625 0  0.8515625 0.015625 0  0.859375 0.015625 0  0.8671875 0.015625 0  0.875 0.015625 0  0.8828125 0.015625 0  0.890625 0.015625 0  0.8984375 0.015625 0  0.90625 0.015625 0  0.9140625 0.015625 0  0.921875 0.015625 0  0.9296875 0.015625 0  0.9375 0.015625 0  0.9453125 0.015625 0  0.953125 0.015625 0  0.9609375 0.015625 0  0.96875 0.015625 0  0.9765625 0.015625 0  0.984375 0.015625 0  0.9921875 0.015625 0  1 0.015625 0  0 0.0234375 0  0.0078125 0.0234375 0  0.015625 0.0234375 0  0.0234375 0.0234375 0  0.03125 0.0234375 0  0.0390625 0.0234375 0  0.046875 0.0234375 0  0.0546875 0.0234375 0  0.0625 0.0234375 0  0.0703125 0.0234375 0  0.078125 0.0234375 0  0.0859375 0.0234375 0  0.09375 0.0234375 0  0.1015625 0.0234375 0  0.109375 0.0234375 0  0.1171875 0.0234375 0  0.125 0.0234375 0  0.1328125 0.0234375 0  0.140625 0.0234375 0  0.1484375 0.0234375 0  0.15625 0.0234375 0  0.1640625 0.0234375 0  0.171875 0.0234375 0  0.1796875 0.0234375 0  0.1875 0.0234375 0  0.1953125 0.0234375 0  0.203125 0.0234375 0  0.2109375 0.0234375 0  0.21875 0.0234375 0  0.2265625 0.0234375 0  0.234375 0.0234375 0  0.2421875 0.0234375 0  0.25 0.0234375 0  0.2578125 0.0234375 0  0.265625 0.0234375 0  0.2734375 0.0234375 0  0.28125 0.0234375 0  0.2890625 0.0234375 0  0.296875 0.0234375 0  0.3046875 0.0234375 0  0.3125 0.0234375 0  0.3203125 0.0234375 0  0.328125 0.0234375 0  0.3359375 0.0234375 0  0.34375 0.0234375 0  0.3515625 0.0234375 0  0.359375 0.0234375 0  0.3671875 0.0234375 0  0.375 0.0234375 0  0.3828125 0.0234375 0  0.390625 0.0234375 0  0.3984375 0.0234375 0  0.40625 0.0234375 0  0.4140625 0.0234375 0  0.421875 0.0234375 0  0.4296875 0.0234375 0  0.4375 0.0234375 0  0.4453125 0.0234375 0  0.453125 0.0234375 0  0.4609375 0.0234375 0  0.46875 0.0234375 0  0.4765625 0.0234375 0  0.484375 0.0234375 0  0.4921875 0.0234375 0  0.5 0.0234375 0  0.5078125 0.0234375 0  0.515625 0.0234375 0  0.5234375 0.0234375 0  0.53125 0.0234375 0  0.5390625 0.0234375 0  0.546875 0.0234375 0  0.5546875 0.0234375 0  0.5625 0.0234375 0  0.5703125 0.0234375 0  0.578125 0.0234375 0  0.5859375 0.0234375 0  0.59375 0.0234375 0  0.6015625 0.0234375 0  0.609375 0.0234375 0  0.6171875 0.0234375 0  0.625 0.0234375 0  0.6328125 0.0234375 0  0.640625 0.0234375 0  0.6484375 0.0234375 0  0.65625 0.0234375 0  0.6640625 0.0234375 0  0.671875 0.0234375 0  0.6796875 0.0234375 0  0.6875 0.0234375 0  0.6953125 0.0234375 0  0.703125 0.0234375 0  0.7109375 0.0234375 0  0.71875 0.0234375 0  0.7265625 0.0234375 0  0.734375 0.0234375 0  0.7421875 0.0234375 0  0.75 0.0234375 0  0.7578125 0.0234375 0  0.765625 0.0234375 0  0.7734375 0.0234375 0  0.78125 0.0234375 0  0.7890625 0.0234375 0  0.796875 0.0234375 0  0.8046875 0.0234375 0  0.8125 0.0234375 0  0.8203125 0.0234375 0  0.828125 0.0234375 0  0.8359375 0.0234375 0  0.84375 0.0234375 0  0.8515625 0.0234375 0  0.859375 0.0234375 0  0.8671
[...]
<PointData  Scalars="u_sol"> 
<DataArray  type="Float64"  Name="u_sol"  format="ascii">1.9395770645371750e-06  -1.0110476263147457e-05  -2.1655956231955934e-05  -2.3605585738894269e-05  -1.8368712310442107e-05  -7.4504339157157854e-06  7.4078026546295616e-06  2.4523339051907964e-05  4.2214299985278981e-05  5.8958577289462246e-05  7.3548958966916883e-05  8.5212336979106318e-05  9.3655889305038989e-05  9.9038365887020154e-05  1.0188557823886455e-04  1.0297770272540026e-04  1.0323479336097205e-04  1.0361778124225566e-04  1.0505135334967121e-04  1.0836629220390560e-04  1.1425523814934588e-04  1.2323785668410674e-04  1.3563745027402586e-04  1.5157732661615325e-04  1.7100733323303045e-04  1.9376584237396224e-04  2.1967068520674916e-04  2.4861896304441102e-04  2.8066752984890234e-04  3.1606887318719206e-04  3.5525138251287663e-04  3.9875271490789465e-04  4.4713064580823080e-04  5.0087960882386109e-04  5.6037154143007248e-04  6.2582262342609585e-04  6.9727308153786380e-04  7.7456308654859829e-04  8.5729405539146895e-04  9.4477512965570048e-04  1.0359621437141294e-03  1.1293985669640779e-03  1.2231666857994243e-03  1.3148555630469920e-03  1.4015517541717838e-03  1.4798586894200273e-03  1.5459502735231422e-03  1.5956626091755109e-03  1.6246246555663832e-03  1.6284241748331122e-03  1.6028010673221306e-03  1.5438568032945701e-03  1.4482673972365462e-03  1.3134877992362129e-03  1.1379372997950251e-03  9.2115707652176790e-04  6.6393408532475879e-04  3.6838733151782992e-04  3.8015793582974651e-05  -3.2229108294095613e-04  -7.0627733074036549e-04  -1.1063767661436609e-03  -1.5138002371085332e-03  -1.9186546646279660e-03  -2.3100984253378518e-03  -2.6765393579041333e-03  -3.0058844427909752e-03  -3.2858503392950754e-03  -3.5043423939780261e-03  -3.6499064625479562e-03  -3.7122508666238975e-03  -3.6828270946908659e-03  -3.5554461127494555e-03  -3.3268944582215063e-03  -2.9975015306835991e-03  -2.5715984872503911e-03  -2.0578032168842653e-03  -1.4690662019828640e-03  -8.2242353245909057e-04  -1.3842386180215287e-04  5.5977190111688644e-04  1.2475802231600229e-03  1.9003944216746955e-03  2.4950773996477498e-03  3.0114063271504399e-03  3.4333216402120861e-03  3.7498487103233892e-03  3.9555976146648736e-03  4.0507996198768303e-03  4.0408986868782897e-03  3.9357714755833811e-03  3.7486900744959765e-03  3.4951608164472611e-03  3.1917685079479786e-03  2.8551307569353291e-03  2.5010305991675949e-03  2.1437559390619421e-03  1.7956411833310096e-03  1.4667863381983318e-03  1.1649230153886717e-03  8.9540213380480047e-04  6.6128814155612717e-04  4.6355178253381285e-04  3.0135314492911138e-04  1.7239883871191558e-04  7.3345700680434406e-05  2.1418298156021083e-07  -5.1227554063972907e-05  -8.5141543414319839e-05  -1.0537998175665501e-04  -1.1533262809923271e-04  -1.1785411734017485e-04  -1.1525564919045083e-04  -1.0934214224006322e-04  -1.0147657102992440e-04  -9.2655976497142342e-05  -8.3587087499469392e-05  -7.4752614377830056e-05  -6.6462379132603758e-05  -5.8885449364854744e-05  -5.2062788596656133e-05  -4.5901058144311949e-05  -4.0153600141397366e-05  -3.4399321623689921e-05  -2.8039111367197616e-05  -2.0398385617561391e-05  -1.1080007168760510e-05  -1.4819185919021298e-06  9.1922356185192408e-07  1.1358610507224949e-06  -1.0976125050210985e-05  4.6905968353205407e-05  2.3137262464538824e-04  5.4433152978568343e-04  9.6986310833557516e-04  1.4806310459503588e-03  2.0438324613422936e-03  2.6249340957472758e-03  3.1912981784121349e-03  3.7152344970627620e-03  4.1762563483802185e-03  4.5622992975377901e-03  4.8698714965862960e-03  5.1032663140625116e-03  5.2730809196382625e-03  5.3943198280452477e-03  5.4843366496802153e-03  5.5608071262605091e-03  5.6398651796559490e-03  5.7344963594913737e-03  5.8532782905471627e-03  5.9995722713866474e-03  6.1712734624614334e-03  6.3611854159921705e-03  6.5579818285560615e-03  6.7475726727974734e-03  6.9145569053542444e-03  7.0433878517586999e-03  7.1189466701248837e-03  7.1264070121943709e-03  7.0505124268183238e-03  6.8745766450177557e-03  6.5795732801311275e-03  6.1435897632125813e-03  5.5417426304707569e-03  4.7464898012859079e-03  3.7282070941210689e-03  2.4559268141769934e-03  8.9821002240505110e-04  -9.7582382349783233e-04  -3.1952836987261483e-03  -5.7861176416946943e-03  -8.7695956590680309e-03  -1.2160745772254344e-02  -1.5966844263952461e-02  -2.0186071898423565e-02  -2.4806446817182977e-02  -2.9805129585841722e-02  -3.5148165547710601e-02  -4.0790691878400440e-02  -4.6677595712458400e-02  -5.2744571760046925e-02  -5.8919496098622459e-02  -6.5124010852034453e-02  -7.1275206869794702e-02  -7.7287298010003516e-02  -8.3073200052834972e-02  -8.8545954910766639e-02  -9.3619972755182343e-02  -9.8212093914598383e-02  -1.0224249783382723e-01  -1.0563550489957882e-01  -1.0832032810787856e-01  -1.1023183501820838e-01  -1.1131137846229776e-01  -1.1150774488238324e-01  -1.1077825658912022e-01  -1.0909004577368944e-01  -1.0642149542207871e-01  -1.0276381692612911e-01  -9.8122706213422076e-02  -9.2519989595694518e-02  -8.5995142009666597e-02  -7.8606534810527720e-02  -7.0432251087334127e-02  -6.1570299153252753e-02  -5.2138062992323972e-02  -4.2270854685326882e-02  -3.2119482007013297e-02  -2.1846812477824565e-02  -1.1623400461617530e-02  -1.6223381316354901e-03  7.9864154888006581e-03  1.7041895600696612e-02  2.5397799900509433e-02  3.2927570605656785e-02  3.9528530940658661e-02  4.5124796610309728e-02  4.9668800275709371e-02  5.3141406285307877e-02  5.5550733748971168e-02  5.6929926007274409e-02  5.7334182613690728e-02  5.6837391643131965e-02  5.5528661217400244e-02  5.3508957977419114e-02  5.0887937244394249e-02  4.7780926967724485e-02  4.4305940265733326e-02  4.0580570721023820e-02  3.6718683889458134e-02  3.2826945844641374e-02  2.9001386304955294e-02  2.5324322977106333e-02  2.1862022815284165e-02  1.8663418671705158e-02  1.5760048326175835e-02  1.3167184271954662e-02  1.0885936664162668e-02  8.9059883073897821e-03  7.2085817966460906e-03  5.7694178680924484e-03  4.5612147095112484e-03  3.5557887038515034e-03  2.7256214354068518e-03  2.0449589295809902e-03  1.4905388072474410e-03  1.0420581094029578e-03  6.8248012745057512e-04  3.9823928659139796e-04  1.7933840277547212e-04  1.9251511666985239e-05  -8.5567408670386461e-05  -1.3693108101313367e-04  -1.3742780040206748e-04  -9.5425000837352731e-05  -3.2005228002954959e-05  5.9447420803505990e-06  -7.8890338417041991e-06  3.8547959868200936e-05  2.3134403576895738e-04  6.1471693399645674e-04  1.1914918814609494e-03  1.9385226849454511e-03  2.8149527316708436e-03  3.7704042147684090e-03  4.7514652828156726e-03  5.7073945120945657e-03  6.5947754104910264e-03  7.3808753563564403e-03  8.0455051936998041e-03  8.5813645859387482e-03  8.9930358243828206e-03  9.2949162123572883e-03  9.5084354688629528e-03  9.6588976825809636e-03  9.7722416749742459e-03  9.8719603358354176e-03  9.9763841525382733e-03  1.0096524598571088e-02  1.0234672630667470e-02  1.0383919491280969e-02  1.0528673342792207e-02  1.0646073646442433e-02  1.0707989884380124e-02  1.0683111641688005e-02  1.0538586058535504e-02  1.0240792428224212e-02  9.7551391935565644e-03  9.0451181541621722e-03  8.0711068147689830e-03  6.7894630086110103e-03  5.1523004274066728e-03  3.1080745813145518e-03  6.0289275761099786e-04  -2.4176203374348939e-03  -6.0060350398030305e-03  -1.0210478687011101e-02  -1.5071705482229882e-02  -2.0619982297700786e-02  -2.6871976552753932e-02  -3.3827898895165659e-02  -4.1469184491758369e-02  -4.9756983368231616e-02  -5.8631671549067614e-02  -6.8013500235263383e-02  -7.7804383074754360e-02  -8.7890698730388059e-02  -9.8146875455364158e-02  -1.0843944597944009e-01  -1.1863122944533562e-01  -1.2858531622895147e-01  -1.3816859305967805e-01  -1.4725463288155055e-01  -1.5572586712779304e-01  -1.6347504366485288e-01  -1.7040603945125937e-01  -1.7643413994172832e-01  -1.8148592019659415e-01  -1.8549886472031138e-01  -1.8842085465147745e-01  -1.9020963267276034e-01  -1.9083233577635594e-01  -1.9026516305306185e-01  -1.8849322656469936e-01  -1.8551061218393944e-01  -1.8132066258026081e-01  -1.7593647627083195e-01  -1.6938160182719825e-01  -1.6169088860909619e-01  -1.5291143847874852e-01  -1.4310358267598608e-01  -1.3234178889607590e-01  -1.2071538605452276e-01  -1.0832897986070315e-01  -9.5302428289513644e-02  -8.1770252208667571e-02  -6.7880379086596901e-02  -5.3792157916757524e-02  -3.9673638811687485e-02  -2.5698177785198190e-02  -1.2040497266519654e-02  1.1276030381915574e-03  1.3641645813807713e-02  2.5348726473413255e-02  3.6111366237020305e-02  4.5810760373120422e-02  5.4349278819849897e-02  6.1652157165915725e-02  6.7668400957136290e-02  7.2371005997741836e-02  7.5756659550257760e-02  7.7845121917035284e-02  7.8678480510605567e-02  7.8320411621307706e-02  7.6855474570007049e-02  7.4388310303020441e-02  7.1042454538112379e-02  6.6958355244719631e-02  6.2290167687094368e-02  5.7201036049772648e-02  5.1856865044921888e-02  4.6418981072651966e-02  4.1036463780320109e-02  3.5839156658608144e-02  3.0932340985585463e-02  2.6393771035826453e-02  2.2273311004318865e-02  1.8594933687108649e-02  1.5360477480673458e-02  1.2554389895156972e-02  1.0148712056939646e-02  8.1077234659888003e-03  6.3918917575520135e-03  4.9609907148854011e-03  3.7764169159835467e-03  2.8028319847357313e-03  2.0092834590865996e-03  1.3699202316123568e-03  8.6433969352353200e-04  4.7747470576032874e-04  1.9882523764885548e-04  2.0570211519580315e-05  -6.5600276898749503e-05  -7.4491710846252807e-05  -3.1932861099819601e-05  5.8239845516894628e-06  -1.7709709669809957e-05  8.8751516793311803e-05  4.2294078072437037e-04  9.9993119621249972e-04  1.8109214547588101e-03  2.8228304017646208e-03  3.9840681560380162e-03  5.2322713528129240e-03  6.5019741113805252e-03  7.7314271061698549e-03  8.8680673404763297e-03  9.8723085576865165e-03  1.0719517793790564e-02  1.1400244325948234e-02  1.1918928777892345e-02  1.2291417361466505e-02  1.2541640201437627e-02  1.2697801278640338e-02  1.2788395592106611e-02  1.2838341278911092e-02  1.2865506147855503e-02  1.2877916677574833e-02  1.2871936047365438e-02  1.2831641357614099e-02  1.2729478905017091e-02  1.2528028832205816e-02  1.2182428165439706e-02  1.1642799707177767e-02  1.0856032848053438e-02  9.7665118006706204e-03  8.3158185642889324e-03  6.4418767038785527e-03  4.0782490340175526e-03  1.1542512360122224e-03  -2.4037478231521085e-03  -6.6698158089490379e-03  -1.1714938472748635e-02  -1.7602752312003152e-02  -2.4384769461222745e-02  -3.2095360046592740e-02  -4.0746857843202602e-02  -5.0325276264098925e-02  -6.0787183571211531e-02  -7.2058245976090271e-02  -8.4033804011120400e-02  -9.6581620143602193e-02  -1.0954665921893737e-01  -1.2275748356754929e-01  -1.3603362442150410e-01  -1.4919317752883166e-01  -1.6205988854235415e-01  -1.7446912745509818e-01  -1.8627236178385970e-01  -1.9733997289566466e-01  -2.0756247451220394e-01  -2.1685035051825999e-01  -2.2513282263548962e-01  -2.3235588886001884e-01  -2.3847995538179662e-01  -2.4347733582957262e-01  -2.4732982969346076e-01  -2.5002653066249930e-01  -2.5156196118653623e-01  -2.5193458616967612e-01  -2.5114573097334841e-01  -2.4919890827044125e-01  -2.4609954746797910e-01  -2.4185511591645689e-01  -2.3647561439681347e-01  -2.2997442823075961e-01  -2.2236950491294366e-01  -2.1368481828444749e-01  -2.0395205952988643e-01  -1.9321247253153301e-01  -1.8151872099167732e-01  -1.6893664433514455e-01  -1.5554673248618966e-01  -1.4144512958682959e-01  -1.2674397609536370e-01  -1.1157092072942952e-01  -9.6067683146739732e-02  -8.0387631324060946e-02  -6.4692440758753605e-02  -4.9148020878469117e-02  -3.3920001627234131e-02  -1.9169153246932656e-02  -5.0471397271877622e-03  8.3070266750975320e-03  2.0769558828137233e-02  3.2233367429058697e-02  4.2608469453355072e-02  5.1821527159812267e-02  5.9814837750576638e-02  6.6545171469765463e-02  7.1982877836458792e-02  7.6111646375188011e-02  7.8929217411726094e-02  8.0449186236877093e-02  8.0703823787422219e-02  7.9747553645056063e-02  7.7660409958276097e-02  7.4550525499616271e-02  7.0554571151409007e-02  6.5835201114735009e-02  6.0575014466608769e-02  5.4967273164550891e-02  4.9204434524579468e-02  4.3466190437493217e-02  3.7908913025607276e-02  3.2658095397331083e-02  2.7804659784452422e-02  2.3405145940685313e-02  1.9485070775922375e-02  1.6044345681582851e-02  1.3063581938411215e-02  1.0510319891550735e-02  8.3445487898336449e-03  6.5232180453042871e-03  5.0036975409716343e-03  3.7462921977007013e-03  2.7159573555984012e-03  1.8833171853165345e-03  1.2249882719288278e-03  7.2309660070431485e-04  3.6372423264220851e-04  1.3418480925683388e-04  1.8173775326292284e-05  -8.9217177510405477e-06  1.4470721646811336e-06  -2.6183008997599588e-05  1.3148907502686429e-04  5.9469724336590874e-04  1.3506430324368021e-03  2.3725388226236094e-03  3.6128640548472538e-03  5.0073689228091259e-03  6.4821502479898733e-03  7.9617909171308225e-03  9.3767610279077672e-03  1.0669199480721033e-02  1.1796616070514883e-02  1.2733451927029838e-02  1.3470708632888800e-02  1.4014010724730344e-02  1.4380509336466710e-02  1.4595005960917749e-02  1.4685621057228340e-02  1.4679292051115445e-02  1.4597382165272302e-02  1.4451717639271121e-02  1.4241421904030884e-02  1.3950929635026324e-02  1.3549476277614233e-02  1.2992126117688496e-02  1.2222048758971699e-02  1.1173397444216320e-02  9.7739616557451468e-03  7.9469072368373358e-03  5.6113853775065919e-03  2.6824066301023566e-03  -9.2915667953852278e-04  -5.3154965968016049e-03  -1.0569112756858066e-02  -1.6778287784912617e-02  -2.4021137862087483e-02  -3.2358768062831882e-02  -4.1828099507744583e-02  -5.2435000419852405e-02  -6.4148501734823032e-02  -7.6896997699116107e-02  -9.0567278443578425e-02  -1.0500696275707518e-01  -1.2003043742952695e-01  -1.3542785975708871e-01  -1.5097626421955818e-01  -1.6645146241522743e-01  -1.8163932712920100e-01  -1.9634522886178257e-01  -2.1040078482487651e-01  -2.2366757246792188e-01  -2.3603793326098663e-01  -2.4743334800088918e-01  -2.5780106444713391e-01  -2.6710970025906389e-01  -2.7534447015613439e-01  -2.8250254443874778e-01  -2.8858887995221155e-01  -2.9361271328871313e-01  -2.9758478336992661e-01  -3.0051526621973090e-01  -3.0241235461250210e-01  -3.0328139420804268e-01  -3.0312448693141075e-01  -3.0194048259597223e-01  -2.9972529780725932e-01  -2.9647252045099554e-01  -2.9217427594564443e-01  -2.8682234636653853e-01  -2.8040954167160581e-01  -2.7293132685697452e-01  -2.6438770304116266e-01  -2.5478532728365005e-01  -2.4413983157152067e-01  -2.3247826788567078e-01  -2.1984156227837390e-01  -2.0628681078003869e-01  -1.9188920234737528e-01  -1.7674331307199384e-01  -1.6096350134365986e-01  -1.4468315220081901e-01  -1.2805258676337536e-01  -1.1123557282661925e-01  -9.4404537788776111e-02  -7.7734778447925840e-02  -6.1398148347499328e-02  -4.5556843386306958e-02  -3.0357961092393582e-02  -1.5929455007563795e-02  -2.3779367396297209e-03  1.0211476368939612e-02  2.1773368867523742e-02  3.2258678456839537e-02  4.1630408748615094e-02  4.9859163077167035e-02  5.6919305199082712e-02  6.2786508407469049e-02  6.7437326849597135e-02  7.0851206857366483e-02  7.3015036581608891e-02  7.3929897073144277e-02  7.3619146264515267e-02  7.2136423008206871e-02  6.9571761231008916e-02  6.6053959176582355e-02  6.1747819870258125e-02  5.6845875451812584e-02  5.1555508205249692e-02  4.6083570085180769e-02  4.0621241653907195e-02  3.5331718558741475e-02  3.0342454044800203e-02  2.5742479926453631e-02  2.1584216398075118e-02  1.7888476131893597e-02  1.4651161143998812e-02  1.1850339784484109e-02  9.4527882661562309e-03  7.4195069678102687e-03  5.7100602141390063e-03  4.2857913464859343e-03  3.1120381332463394e-03  2.1594450797151258e-03  1.4043985265961439e-03  8.2848527950308334e-04  4.1692906495347675e-04  1.5531353605405379e-04  2.5679003361310104e-05  -5.3477142819782063e-06  -3.3375501427595929e-05  1.6729522729973668e-04  7.4575915796721128e-04  1.6669254195584250e-03  2.8832857236042713e-03  4.3287610063773869e-03  5.9228316648122876e-03  7.5779251726195524e-03  9.2082124768707706e-03  1.0737490210784585e-02  1.2104959044168735e-02  1.3268361342721720e-02  1.4204554310408932e-02  1.4907961463223842e-02  1.5387487917225249e-02  1.5662446668414709e-02  1.5757915337945728e-02  1.5699814714207096e-02  1.5509935596492420e-02  1.5201164586254815e-02  1.4773256153750197e-02  1.4209608015175838e-02  1.3475525394886362e-02  1.2518310063482628e-02  1.1269144464973797e-02  9.6462467966284618e-03  7.5583719967316941e-03  4.9076912675330223e-03  1.5915321998957027e-03  -2.4967396426105607e-03  -7.4666675179598588e-03  -1.3428183826633229e-02  -2.0486722784764089e-02  -2.8735882530521690e-02  -3.8248328572896215e-02  -4.9066035256125351e-02  -6.1191045662418515e-02  -7.4577949373242317e-02  -8.9129339367031879e-02  -1.0469545471845390e-01  -1.2107882982836574e-01  -1.3804402287023498e-01  -1.5533155666521589e-01  -1.7267434859338701e-01  -1.8981439114714549e-01  -2.0651742907121567e-01  -2.2258385902713473e-01  -2.3785489930541989e-01  -2.5221398712112292e-01  -2.6558412387221053e-01  -2.7792235380718766e-01  -2.8921269510958159e-01  -2.9945870774084116e-01  -3.0867658622193034e-01  -3.1688931892145761e-01  -3.2412214340957030e-01  -3.3039928701810728e-01  -3.3574183676940644e-01  -3.4016650916222790e-01  -3.4368508143873316e-01  -3.4630426936249625e-01  -3.4802588062998846e-01  -3.4884712024965348e-01  -3.4876097084458418e-01  -3.4775660877648151e-01  -3.4581984888874129e-01  -3.4293363624608314e-01  -3.3907862030262126e-01  -3.3423386398945232e-01  -3.2837774793229541e-01  -3.2148913688907449e-01  -3.1354887405269943e-01  -3.0454165946256356e-01  -2.9445834815492461e-01  -2.8329866639269002e-01  -2.7107429254062204e-01  -2.5781217599339967e-01  -2.4355788123524430e-01  -2.2837865293151199e-01  -2.1236581091210416e-01  -1.9563603312184086e-01  -1.7833108311228987e-01  -1.6061561634531690e-01  -1.4267286964204423e-01  -1.2469829095592082e-01  -1.0689148152267339e-01  -8.9447139862300032e-02  -7.2545956166566478e-02  -5.6346532374447152e-02  -4.0979355195597734e-02  -2.6543611864891070e-02  -1.3107252524978083e-02  -7.1023565826713712e-04  1.0629562596242743e-02  2.0908661414507913e-02  3.0129629236787234e-02  3.8293285641544425e-02  4.5392621883366652e-02  5.1409470578142068e-02  5.6314714279771652e-02  6.0072454992865093e-02  6.2648034181515030e-02  6.4019086607599043e-02  6.4188004214170896e-02  6.3193471003920407e-02  6.1118396514998057e-02  5.8091906464134438e-02  5.4284152188334919e-02  4.9894365999007401e-02  4.5134297893828799e-02  4.0210295620542645e-02  3.5307419353594535e-02  3.0578127679521103e-02  2.6136648422871625e-02  2.2058726312257686e-02  1.8385459569072057e-02  1.5129559658300209e-02  1.2282496435220924e-02  9.8214047208264946e-03  7.7151079500761104e-03  5.9290123641709087e-03  4.4288776726737174e-03  3.1835765339053583e-03  2.1669540655202633e-03  1.3588204989357941e-03  7.4504650240069491e-04  3.1644831159698605e-04  6.6626964017054560e-05  -1.3381689250571222e-05  -3.9882630564725592e-05  1.9959752745796447e-04  8.8576191161160488e-04  1.9644867741892861e-03  3.3660186902157150e-03  5.0019444897322655e-03  6.7714227521500714e-03  8.5702085070535217e-03  1.0300742694649239e-02  1.1880624816576311e-02  1.3248100484205477e-02  1.4364092791841216e-02  1.5211138274213809e-02  1.5790026397259967e-02  1.6115029685137276e-02  1.6208446434279336e-02  1.6094918525383417e-02  1.5795771770952018e-02  1.5323543534993744e-02  1.4676933394313710e-02  1.3836588602478259e-02  1.2762301847149755e-02  1.1392198770873817e-02  9.6442009027214587e-03  7.4194756354700412e-03  4.6069510276397661e-03  1.0876630630242098e-03  -3.2619624465435224e-03  -8.5678354974208920e-03  -1.4955777452009758e-02  -2.2547240129311918e-02  -3.1451896332423332e-02  -4.1757054033012275e-02  -5.3515158804916155e-02  -6.6731407678961199e-02  -8.1353606606268683e-02  -9.7266190211465695e-02  -1.1429001016018164e-01  -1.3218894667467063e-01  -1.5068339509989978e-01  -1.6946931869039264e-01  -1.882402