<?xml version="1.0"?>
<VTKFile type="UnstructuredGrid"  version="0.1"  >
<UnstructuredGrid>
<Piece  NumberOfPoints="16641" NumberOfCells="16384">
<Points>
<DataArray  type="Float64"  NumberOfComponents="3"  format="ascii">0 0 0  0.0078125 0 0  0.015625 0 0  0.0234375 0 0  0.03125 0 0  0.0390625 0 0  0.046875 0 0  0.0546875 0 0  0.0625 0 0  0.0703125 0 0  0.078125 0 0  0.0859375 0 0  0.09375 0 0  0.1015625 0 0  0.109375 0 0  0.1171875 0 0  0.125 0 0  0.1328125 0 0  0.140625 0 0  0.1484375 0 0  0.15625 0 0  0.1640625 0 0  0.171875 0 0  0.1796875 0 0  0.1875 0 0  0.1953125 0 0  0.203125 0 0  0.2109375 0 0  0.21875 0 0  0.2265625 0 0  0.234375 0 0  0.2421875 0 0  0.25 0 0  0.2578125 0 0  0.265625 0 0  0.2734375 0 0  0.28125 0 0  0.2890625 0 0  0.296875 0 0  0.3046875 0 0  0.3125 0 0  0.3203125 0 0  0.328125 0 0  0.3359375 0 0  0.34375 0 0  0.3515625 0 0  0.359375 0 0  0.3671875 0 0  0.375 0 0  0.3828125 0 0  0.390625 0 0  0.3984375 0 0  0.40625 0 0  0.4140625 0 0  0.421875 0 0  0.4296875 0 0  0.4375 0 0  0.4453125 0 0  0.453125 0 0  0.4609375 0 0  0.46875 0 0  0.4765625 0 0  0.484375 0 0  0.4921875 0 0  0.5 0 0  0.5078125 0 0  0.515625 0 0  0.5234375 0 0  0.53125 0 0  0.5390625 0 0  0.546875 0 0  0.5546875 0 0  0.5625 0 0  0.5703125 0 0  0.578125 0 0  0.5859375 0 0  0.59375 0 0  0.6015625 0 0  0.609375 0 0  0.6171875 0 0  0.625 0 0  0.6328125 0 0  0.640625 0 0  0.6484375 0 0  0.65625 0 0  0.6640625 0 0  0.671875 0 0  0.6796875 0 0  0.6875 0 0  0.6953125 0 0  0.703125 0 0  0.7109375 0 0  0.71875 0 0  0.7265625 0 0  0.734375 0 0  0.7421875 0 0  0.75 0 0  0.7578125 0 0  0.765625 0 0  0.7734375 0 0  0.78125 0 0  0.7890625 0 0  0.796875 0 0  0.8046875 0 0  0.8125 0 0  0.8203125 0 0  0.828125 0 0  0.8359375 0 0  0.84375 0 0  0.8515625 0 0  0.859375 0 0  0.8671875 0 0  0.875 0 0  0.8828125 0 0  0.890625 0 0  0.8984375 0 0  0.90625 0 0  0.9140625 0 0  0.921875 0 0  0.9296875 0 0  0.9375 0 0  0.9453125 0 0  0.953125 0 0  0.9609375 0 0  0.96875 0 0  0.9765625 0 0  0.984375 0 0  0.9921875 0 0  1 0 0  0 0.0078125 0  0.0078125 0.0078125 0  0.015625 0.0078125 0  0.0234375 0.0078125 0  0.03125 0.0078125 0  0.0390625 0.0078125 0  0.046875 0.0078125 0  0.0546875 0.0078125 0  0.0625 0.0078125 0  0.0703125 0.0078125 0  0.078125 0.0078125 0  0.0859375 0.0078125 0  0.09375 0.0078125 0  0.1015625 0.0078125 0  0.109375 0.0078125 0  0.1171875 0.0078125 0  0.125 0.0078125 0  0.1328125 0.0078125 0  0.140625 0.0078125 0  0.1484375 0.0078125 0  0.15625 0.0078125 0  0.1640625 0.0078125 0  0.171875 0.0078125 0  0.1796875 0.0078125 0  0.1875 0.0078125 0  0.1953125 0.0078125 0  0.203125 0.0078125 0  0.2109375 0.0078125 0  0.21875 0.0078125 0  0.2265625 0.0078125 0  0.234375 0.0078125 0  0.2421875 0.0078125 0  0.25 0.0078125 0  0.2578125 0.0078125 0  0.265625 0.0078125 0  0.2734375 0.0078125 0  0.28125 0.0078125 0  0.2890625 0.0078125 0  0.296875 0.0078125 0  0.3046875 0.0078125 0  0.3125 0.0078125 0  0.3203125 0.0078125 0  0.328125 0.0078125 0  0.3359375 0.0078125 0  0.34375 0.0078125 0  0.3515625 0.0078125 0  0.359375 0.0078125 0  0.3671875 0.0078125 0  0.375 0.0078125 0  0.3828125 0.0078125 0  0.390625 0.0078125 0  0.3984375 0.0078125 0  0.40625 0.0078125 0  0.4140625 0.0078125 0  0.421875 0.0078125 0  0.4296875 0.0078125 0  0.4375 0.0078125 0  0.4453125 0.0078125 0  0.453125 0.0078125 0  0.4609375 0.0078125 0  0.46875 0.0078125 0  0.4765625 0.0078125 0  0.484375 0.0078125 0  0.4921875 0.0078125 0  0.5 0.0078125 0  0.5078125 0.0078125 0  0.515625 0.0078125 0  0.5234375 0.0078125 0  0.53125 0.0078125 0  0.5390625 0.0078125 0  0.546875 0.0078125 0  0.5546875 0.0078125 0  0.5625 0.0078125 0  0.5703125 0.0078125 0  0.578125 0.0078125 0  0.5859375 0.0078125 0  0.59375 0.0078125 0  0.6015625 0.0078125 0  0.609375 0.0078125 0  0.6171875 0.0078125 0  0.625 0.0078125 0  0.6328125 0.0078125 0  0.640625 0.0078125 0  0.6484375 0.0078125 0  0.65625 0.0078125 0  0.6640625 0.0078125 0  0.671875 0.0078125 0  0.6796875 0.0078125 0  0.6875 0.0078125 0  0.6953125 0.0078125 0  0.703125 0.0078125 0  0.7109375 0.0078125 0  0.71875 0.0078125 0  0.7265625 0.0078125 0  0.734375 0.0078125 0  0.7421875 0.0078125 0  0.75 0.0078125 0  0.7578125 0.0078125 0  0.765625 0.0078125 0  0.7734375 0.0078125 0  0.78125 0.0078125 0  0.7890625 0.0078125 0  0.796875 0.0078125 0  0.8046875 0.0078125 0  0.8125 0.0078125 0  0.8203125 0.0078125 0  0.828125 0.0078125 0  0.8359375 0.0078125 0  0.84375 0.0078125 0  0.8515625 0.0078125 0  0.859375 0.0078125 0  0.8671875 0.0078125 0  0.875 0.0078125 0  0.8828125 0.0078125 0  0.890625 0.0078125 0  0.8984375 0.0078125 0  0.90625 0.0078125 0  0.9140625 0.0078125 0  0.921875 0.0078125 0  0.9296875 0.0078125 0  0.9375 0.0078125 0  0.9453125 0.0078125 0  0.953125 0.0078125 0  0.9609375 0.0078125 0  0.96875 0.0078125 0  0.9765625 0.0078125 0  0.984375 0.0078125 0  0.9921875 0.0078125 0  1 0.0078125 0  0 0.015625 0  0.0078125 0.015625 0  0.015625 0.015625 0  0.0234375 0.015625 0  0.03125 0.015625 0  0.0390625 0.015625 0  0.046875 0.015625 0  0.0546875 0.015625 0  0.0625 0.015625 0  0.0703125 0.015625 0  0.078125 0.015625 0  0.0859375 0.015625 0  0.09375 0.015625 0  0.1015625 0.015625 0  0.109375 0.015625 0  0.1171875 0.015625 0  0.125 0.015625 0  0.1328125 0.015625 0  0.140625 0.015625 0  0.1484375 0.015625 0  0.15625 0.015625 0  0.1640625 0.015625 0  0.171875 0.015625 0  0.1796875 0.015625 0  0.1875 0.015625 0  0.1953125 0.015625 0  0.203125 0.015625 0  0.2109375 0.015625 0  0.21875 0.015625 0  0.2265625 0.015625 0  0.234375 0.015625 0  0.2421875 0.015625 0  0.25 0.015625 0  0.2578125 0.015625 0  0.265625 0.015625 0  0.2734375 0.015625 0  0.28125 0.015625 0  0.2890625 0.015625 0  0.296875 0.015625 0  0.3046875 0.015625 0  0.3125 0.015625 0  0.3203125 0.015625 0  0.328125 0.015625 0  0.3359375 0.015625 0  0.34375 0.015625 0  0.3515625 0.015625 0  0.359375 0.015625 0  0.3671875 0.015625 0  0.375 0.015625 0  0.3828125 0.015625 0  0.390625 0.015625 0  0.3984375 0.015625 0  0.40625 0.015625 0  0.4140625 0.015625 0  0.421875 0.015625 0  0.4296875 0.015625 0  0.4375 0.015625 0  0.4453125 0.015625 0  0.453125 0.015625 0  0.4609375 0.015625 0  0.46875 0.015625 0  0.4765625 0.015625 0  0.484375 0.015625 0  0.4921875 0.015625 0  0.5 0.015625 0  0.5078125 0.015625 0  0.515625 0.015625 0  0.5234375 0.015625 0  0.53125 0.015625 0  0.5390625 0.015625 0  0.546875 0.015625 0  0.5546875 0.015625 0  0.5625 0.015625 0  0.5703125 0.015625 0  0.578125 0.015625 0  0.5859375 0.015625 0  0.59375 0.015625 0  0.6015625 0.015625 0  0.609375 0.015625 0  0.6171875 0.015625 0  0.625 0.015625 0  0.6328125 0.015625 0  0.640625 0.015625 0  0.6484375 0.015625 0  0.65625 0.015625 0  0.6640625 0.015625 0  0.671875 0.015625 0  0.6796875 0.015625 0  0.6875 0.015625 0  0.6953125 0.015625 0  0.703125 0.015625 0  0.7109375 0.015625 0  0.71875 0.015625 0  0.7265625 0.015625 0  0.734375 0.015625 0  0.7421875 0.015625 0  0.75 0.015625 0  0.7578125 0.015625 0  0.765625 0.015625 0  0.7734375 0.015625 0  0.78125 0.015625 0  0.7890625 0.015625 0  0.796875 0.015625 0  0.8046875 0.015625 0  0.8125 0.015625 0  0.8203125 0.015625 0  0.828125 0.015625 0  0.8359375 0.015625 0  0.84375 0.015625 0  0.8515625 0.015625 0  0.859375 0.015625 0  0.8671875 0.015625 0  0.875 0.015625 0  0.8828125 0.015625 0  0.890625 0.015625 0  0.8984375 0.015625 0  0.90625 0.015625 0  0.9140625 0.015625 0  0.921875 0.015625 0  0.9296875 0.015625 0  0.9375 0.015625 0  0.9453125 0.015625 0  0.953125 0.015625 0  0.9609375 0.015625 0  0.96875 0.015625 0  0.9765625 0.015625 0  0.984375 0.015625 0  0.9921875 0.015625 0  1 0.015625 0  0 0.0234375 0  0.0078125 0.0234375 0  0.015625 0.0234375 0  0.0234375 0.0234375 0  0.03125 0.0234375 0  0.0390625 0.0234375 0  0.046875 0.0234375 0  0.0546875 0.0234375 0  0.0625 0.0234375 0  0.0703125 0.0234375 0  0.078125 0.0234375 0  0.0859375 0.0234375 0  0.09375 0.0234375 0  0.1015625 0.0234375 0  0.109375 0.0234375 0  0.1171875 0.0234375 0  0.125 0.0234375 0  0.1328125 0.0234375 0  0.140625 0.0234375 0  0.1484375 0.0234375 0  0.15625 0.0234375 0  0.1640625 0.0234375 0  0.171875 0.0234375 0  0.1796875 0.0234375 0  0.1875 0.0234375 0  0.1953125 0.0234375 0  0.203125 0.0234375 0  0.2109375 0.0234375 0  0.21875 0.0234375 0  0.2265625 0.0234375 0  0.234375 0.0234375 0  0.2421875 0.0234375 0  0.25 0.0234375 0  0.2578125 0.0234375 0  0.265625 0.0234375 0  0.2734375 0.0234375 0  0.28125 0.0234375 0  0.2890625 0.0234375 0  0.296875 0.0234375 0  0.3046875 0.0234375 0  0.3125 0.0234375 0  0.3203125 0.0234375 0  0.328125 0.0234375 0  0.3359375 0.0234375 0  0.34375 0.0234375 0  0.3515625 0.0234375 0  0.359375 0.0234375 0  0.3671875 0.0234375 0  0.375 0.0234375 0  0.3828125 0.0234375 0  0.390625 0.0234375 0  0.3984375 0.0234375 0  0.40625 0.0234375 0  0.4140625 0.0234375 0  0.421875 0.0234375 0  0.4296875 0.0234375 0  0.4375 0.0234375 0  0.4453125 0.0234375 0  0.453125 0.0234375 0  0.4609375 0.0234375 0  0.46875 0.0234375 0  0.4765625 0.0234375 0  0.484375 0.0234375 0  0.4921875 0.0234375 0  0.5 0.0234375 0  0.5078125 0.0234375 0  0.515625 0.0234375 0  0.5234375 0.0234375 0  0.53125 0.0234375 0  0.5390625 0.0234375 0  0.546875 0.0234375 0  0.5546875 0.0234375 0  0.5625 0.0234375 0  0.5703125 0.0234375 0  0.578125 0.0234375 0  0.5859375 0.0234375 0  0.59375 0.0234375 0  0.6015625 0.0234375 0  0.609375 0.0234375 0  0.6171875 0.0234375 0  0.625 0.0234375 0  0.6328125 0.0234375 0  0.640625 0.0234375 0  0.6484375 0.0234375 0  0.65625 0.0234375 0  0.6640625 0.0234375 0  0.671875 0.0234375 0  0.6796875 0.0234375 0  0.6875 0.0234375 0  0.6953125 0.0234375 0  0.703125 0.0234375 0  0.7109375 0.0234375 0  0.71875 0.0234375 0  0.7265625 0.0234375 0  0.734375 0.0234375 0  0.7421875 0.0234375 0  0.75 0.0234375 0  0.7578125 0.0234375 0  0.765625 0.0234375 0  0.7734375 0.0234375 0  0.78125 0.0234375 0  0.7890625 0.0234375 0  0.796875 0.0234375 0  0.8046875 0.0234375 0  0.8125 0.0234375 0  0.8203125 0.0234375 0  0.828125 0.0234375 0  0.8359375 0.0234375 0  0.84375 0.0234375 0  0.8515625 0.0234375 0  0.859375 0.0234375 0  0.8671
[...]
<PointData  Scalars="v_sol"> 
<DataArray  type="Float64"  Name="v_sol"  format="ascii">-1.9312422933486936e-06  -1.0187027092211513e-06  9.0027797610272738e-06  2.1098888125376702e-05  3.2321967395922813e-05  4.1433016472863358e-05  4.7732269481643668e-05  5.0921683937239026e-05  5.1018895305878613e-05  4.8352524023551555e-05  4.3495277613904646e-05  3.7181303237793594e-05  3.0203392087256178e-05  2.3318569720809723e-05  1.7171881969927943e-05  1.2247376251665669e-05  8.8448748689079521e-06  7.0777467028311827e-06  6.8846006539810139e-06  8.0497184947697621e-06  1.0230206529601142e-05  1.2991031999101314e-05  1.5849872996052374e-05  1.8331071479586865e-05  2.0022470426091360e-05  2.0623203543101403e-05  1.9968243776889892e-05  1.8019479005286595e-05  1.4823126856538220e-05  1.0445690543277361e-05  4.9095212379075899e-06  -1.8505572150598075e-06  -9.9971569257651876e-06  -1.9768632525016662e-05  -3.1439712058887671e-05  -4.5281926130834663e-05  -6.1535413491923155e-05  -8.0393376273623575e-05  -1.0199286156881402e-04  -1.2640454847075798e-04  -1.5361819037986691e-04  -1.8352496521545429e-04  -2.1590018851291273e-04  -2.5038973509686831e-04  -2.8650257591050679e-04  -3.2361119110092568e-04  -3.6096103369392425e-04  -3.9768940739427094e-04  -4.3285288707768719e-04  -4.6546139398201489e-04  -4.9451634911600907e-04  -5.1904969188102149e-04  -5.3816051873455605e-04  -5.5104600728594769e-04  -5.5702430867847149e-04  -5.5554821572706067e-04  -5.4620985276636347e-04  -5.2873782703386873e-04  -5.0298918444147123e-04  -4.6893877161477638e-04  -4.2666862561944872e-04  -3.7635972337991808e-04  -3.1828774018143052e-04  -2.5282402159401777e-04  -1.8044212139124724e-04  -1.0172965244959984e-04  -1.7404428148248051e-05  7.1666579513859617e-05  1.6444783721269923e-04  2.5971806286324546e-04  3.5605838491887235e-04  4.5184939032650429e-04  5.4528039757339292e-04  6.3437408742245019e-04  7.1702886803438448e-04  7.9108022210896164e-04  8.5438058513361286e-04  9.0489544790518285e-04  9.4081096859327897e-04  9.6064636807453993e-04  9.6336229358307251e-04  9.4845501327944586e-04  9.1602601223802463e-04  8.6681740471346292e-04  8.0220596389422914e-04  7.2415225055655656e-04  6.3510633203574371e-04  5.3787682138503655e-04  4.3547522434559766e-04  3.3095121730774304e-04  2.2723604248727552e-04  1.2700983536566990e-04  3.2604675227376713e-05  -5.4051342156341869e-05  -1.3145097842134578e-04  -1.9849425335839623e-04  -2.5445753298620734e-04  -2.9895935486263630e-04  -3.3193422085329364e-04  -3.5361940668722567e-04  -3.6455203086903002e-04  -3.6556675621230209e-04  -3.5778105505874418e-04  -3.4255653928576198e-04  -3.2143141806110110e-04  -2.9602812255056127e-04  -2.6794834893031471e-04  -2.3867202813581331e-04  -2.0947572310571743e-04  -1.8138079904337628e-04  -1.5513448035004869e-04  -1.3122036173795798e-04  -1.0989060003653335e-04  -9.1210223751177406e-05  -7.5104636606716199e-05  -6.1403007715323275e-05  -4.9873222516465996e-05  -4.0245799203164746e-05  -3.2228663455573991e-05  -2.5513043461680565e-05  -1.9780670479965161e-05  -1.4708294977326470e-05  -9.9996274361487762e-06  -5.4158554835661751e-06  -9.0083990714984504e-07  3.2974698707973540e-06  6.2619167171120003e-06  5.9742753136841598e-06  9.3144424154285374e-07  1.0071186358711854e-05  1.0780802360533103e-05  -4.3720052352282938e-05  -1.0592181091750666e-04  -1.6334906852992276e-04  -2.0968938292954294e-04  -2.4165839798345238e-04  -2.5773026818810515e-04  -2.5803312049823380e-04  -2.4425696560079657e-04  -2.1935500399213504e-04  -1.8709638531269962e-04  -1.5154203714186156e-04  -1.1655389693169373e-04  -8.5408669650476339e-05  -6.0551711919855719e-05  -4.3486180922649106e-05  -3.4768062046007224e-05  -3.4070066575220160e-05  -4.0286538219428254e-05  -5.1669767490953091e-05  -6.6005107572570998e-05  -8.0836949118354666e-05  -9.3743704191057666e-05  -1.0263057024103771e-04  -1.0597781280135041e-04  -1.0296939766658089e-04  -9.3447088182322367e-05  -7.7688147501520823e-05  -5.6070631455920169e-05  -2.8737400928187079e-05  4.6280632940580470e-06  4.4849313258612318e-05  9.3139331168195816e-05  1.5089267063946211e-04  2.1948025902501179e-04  3.0010716605349564e-04  3.9373813199059204e-04  5.0105580081680147e-04  6.2241261966348776e-04  7.5775956310977397e-04  9.0655925148856362e-04  1.0677019948026553e-03  1.2394418218175008e-03  1.4193639923773755e-03  1.6043916016831609e-03  1.7908358501877537e-03  1.9744905236057379e-03  2.1507656872830293e-03  2.3148508700516750e-03  2.4618950257547989e-03  2.5871881704759561e-03  2.6863294574240608e-03  2.7553669699859171e-03  2.7908995663364394e-03  2.7901363701229366e-03  2.7509160764998858e-03  2.6716932692541244e-03  2.5515026409738410e-03  2.3899130831823052e-03  2.1869834541727463e-03  1.9432312957906846e-03  1.6596222071721474e-03  1.3375864352155329e-03  9.7906537364663630e-04  5.8658731348356762e-04  1.6336897323367995e-04  -2.8656467015779872e-04  -7.5825332173654460e-04  -1.2456817741301382e-03  -1.7416855899903925e-03  -2.2379029562579842e-03  -2.7247951792018776e-03  -3.1917569594140448e-03  -3.6273353881910442e-03  -4.0195694789343928e-03  -4.3564519526838735e-03  -4.6265011503243926e-03  -4.8194143473772409e-03  -4.9267575310583088e-03  -4.9426309032760424e-03  -4.8642403555186585e-03  -4.6923034701961391e-03  -4.4312282708166770e-03  -4.0890231937072349e-03  -3.6769264521764617e-03  -3.2087786056726277e-03  -2.7001963859323943e-03  -2.1676346081445056e-03  -1.6274380361874599e-03  -1.0949845394069128e-03  -5.8400344730931680e-04  -1.0612204331030974e-04  3.2934677818458876e-04  7.1540265053251834e-04  1.0472007828921119e-03  1.3218178350082152e-03  1.5380176549199148e-03  1.6960745685252218e-03  1.7976779372296226e-03  1.8459014589422326e-03  1.8451869305764542e-03  1.8012758847452861e-03  1.7210307347586514e-03  1.6121186330162621e-03  1.4825748404055873e-03  1.3403025476319465e-03  1.1925878298312961e-03  1.0457052981997371e-03  9.0466617080944161e-04  7.7312587751233758e-04  6.5343611829709095e-04  5.4680419061906179e-04  4.5351298468903413e-04  3.7315701980170307e-04  3.0485865633033028e-04  2.4744085239646610e-04  1.9954652841007654e-04  1.5970669299760856e-04  1.2637346599386295e-04  9.7937548683396699e-05  7.2777055189919934e-05  4.9345449807220214e-05  2.6461755810933116e-05  3.6198510627350340e-06  -1.7721048551911405e-05  -3.3674976010657111e-05  -3.1948874192934404e-05  -1.5589350942515187e-06  2.1812438968859997e-05  -4.3362683304575115e-05  -2.4342669152320327e-04  -4.7331643400464710e-04  -6.8874745578484701e-04  -8.6438645978756065e-04  -9.8609306119349792e-04  -1.0473458624855414e-03  -1.0483269470981640e-03  -9.9517006736494552e-04  -8.9874060559439329e-04  -7.7297526382344689e-04  -6.3301586785729819e-04  -4.9343972342612719e-04  -3.6681937852787723e-04  -2.6273374583718712e-04  -1.8723911212371574e-04  -1.4272874274506896e-04  -1.2808052128715521e-04  -1.3901138186869883e-04  -1.6860561120650007e-04  -2.0802828558903701e-04  -2.4744042265528851e-04  -2.7707968783118389e-04  -2.8837207823982880e-04  -2.7484336279855220e-04  -2.3256932966593752e-04  -1.5998814254926765e-04  -5.7090118557471482e-05  7.5770747904691535e-05  2.3904189428364296e-04  4.3471585609655911e-04  6.6643187665812802e-04  9.3898330063484612e-04  1.2574967056326596e-03  1.6266037557273144e-03  2.0498107751498748e-03  2.5290860834076482e-03  3.0645620017655407e-03  3.6542464113052766e-03  4.2937167873066890e-03  4.9758469540313278e-03  5.6906460195642015e-03  6.4252760009567847e-03  7.1642850057348061e-03  7.8900631758728398e-03  8.5835011710946874e-03  9.2248040982345104e-03  9.7943884906390027e-03  1.0273775517675991e-02  1.0646394321507106e-02  1.0898223255645120e-02  1.1018221877891789e-02  1.0998534157461411e-02  1.0834472794986432e-02  1.0524318636989917e-02  1.0068986041017237e-02  9.4716126775405609e-03  8.7371312780481925e-03  7.8718737072793980e-03  6.8832447993389329e-03  5.7794916878697415e-03  4.5695814714529987e-03  3.2631888064027655e-03  1.8707867435502218e-03  4.0382625165461737e-04  -1.1250162891918371e-03  -2.7015483131623040e-03  -4.3097580736000890e-03  -5.9315354645933776e-03  -7.5464552864717522e-03  -9.1316669241667033e-03  -1.0661936012642929e-02  -1.2109880924503789e-02  -1.3446441694033431e-02  -1.4641607143592189e-02  -1.5665405240568777e-02  -1.6489136122957174e-02  -1.7086795717560950e-02  -1.7436602509120099e-02  -1.7522508865988065e-02  -1.7335555772828328e-02  -1.6874921412958720e-02  -1.6148527022725741e-02  -1.5173097722989930e-02  -1.3973629973749728e-02  -1.2582285558021239e-02  -1.1036802246790184e-02  -9.3785739819303680e-03  -7.6505964244103089e-03  -5.8954879657550944e-03  -4.1537798932183498e-03  -2.4626217008626309e-03  -8.5497525873366211e-04  6.4071554355763882e-04  2.0004798272913525e-03  3.2045698601924555e-03  4.2372131026732034e-03  5.0865589940795432e-03  5.7449428100451831e-03  6.2094682460051539e-03  6.4827674479015183e-03  6.5736743702050670e-03  6.4974950493434718e-03  6.2756102198356541e-03  5.9342984304261576e-03  5.5028763941596141e-03  5.0114433203648700e-03  4.4886187493402225e-03  3.9596471947217762e-03  3.4451250839980315e-03  2.9604394439366891e-03  2.5158526402179809e-03  2.1170634087682104e-03  1.7660338714392634e-03  1.4618851722875475e-03  1.2017119718938493e-03  9.8122907965068028e-04  7.9522933295769229e-04  6.3788894886896157e-04  5.0300819163179473e-04  3.8430788247475822e-04  2.7595421900143674e-04  1.7350088494179309e-04  7.5545827985687590e-05  -1.3555037192619671e-05  -7.9648550934443527e-05  -9.3950462485743380e-05  -1.1444530581754462e-05  2.5586456753799210e-05  -2.0702354722646781e-04  -6.1399880150782564e-04  -1.0646492090137967e-03  -1.4846594087390102e-03  -1.8266130875032628e-03  -2.0620004774247040e-03  -2.1776625393442718e-03  -2.1739089958198619e-03  -2.0627842751260758e-03  -1.8654672883873431e-03  -1.6090129552766342e-03  -1.3228034150383333e-03  -1.0352113606546323e-03  -7.7084963405580145e-04  -5.4861210653095287e-04  -3.8053196399837286e-04  -2.7136028398506832e-04  -2.1872084593598309e-04  -2.1372555473291735e-04  -2.4200582986753005e-04  -2.8517404467441268e-04  -3.2271635844891244e-04  -3.3420351833639495e-04  -3.0151763656822484e-04  -2.1062336578283610e-04  -5.2383915546390257e-05  1.7788190485219693e-04  4.8201145561928689e-04  8.6124647644678803e-04  1.3183100441738873e-03  1.8585597569137605e-03  2.4898516465952621e-03  3.2212793663345869e-03  4.0613427190290168e-03  5.0161523710846459e-03  6.0880245462629767e-03  7.2744896908831938e-03  8.5675669764846314e-03  9.9532030022619726e-03  1.1410921116752690e-02  1.2913828007564083e-02  1.4429120542402888e-02  1.5919160377968606e-02  1.7343084778646326e-02  1.8658828171676967e-02  1.9825354900783305e-02  2.0804863739922224e-02  2.1564724115732785e-02  2.2078944403833799e-02  2.2329045526094656e-02  2.2304301819254475e-02  2.2001398713013404e-02  2.1423623534788095e-02  2.0579745655403412e-02  1.9482748320264219e-02  1.8148560193407264e-02  1.6594903433909736e-02  1.4840336173938809e-02  1.2903533966759579e-02  1.0802823158267848e-02  8.5559589635534651e-03  6.1801246959592420e-03  3.6921231963086992e-03  1.1087263086694828e-03  -1.5528532770883341e-03  -4.2744038936457706e-03  -7.0361089500903728e-03  -9.8159337825957857e-03  -1.2589053026872713e-02  -1.5327370773092952e-02  -1.7999193922087982e-02  -2.0569124217305466e-02  -2.2998236563768520e-02  -2.5244606071295878e-02  -2.7264233101671601e-02  -2.9012389069554671e-02  -3.0445367288941226e-02  -3.1522573826952310e-02  -3.2208836977307170e-02  -3.2476757802919469e-02  -3.2308882188827999e-02  -3.1699455351581300e-02  -3.0655532636721199e-02  -2.9197274151355607e-02  -2.7357336645131240e-02  -2.5179387330008639e-02  -2.2715880632399970e-02  -2.0025338220274389e-02  -1.7169438879160736e-02  -1.4210243652857267e-02  -1.1207851156154360e-02  -8.2187038696373040e-03  -5.2946585879459921e-03  -2.4828058151395529e-03  1.7411125020911326e-04  2.6369512139734355e-03  4.8694696437593839e-03  6.8380569644386439e-03  8.5122687766524211e-03  9.8663367104647372e-03  1.0881581726968846e-02  1.1549329164355060e-02  1.1873639851358022e-02  1.1873042779710618e-02  1.1580573368648383e-02  1.1041793744318488e-02  1.0310992408762281e-02  9.4462449611844041e-03  8.5042860127800719e-03  7.5361106760336808e-03  6.5839365172526360e-03  5.6797508774350915e-03  4.8452940790029014e-03  4.0930869959436393e-03  3.4280279673923495e-03  2.8491310663844934e-03  2.3511042176544181e-03  1.9256204700696909e-03  1.5622858133564610e-03  1.2494274713919877e-03  9.7492763172486881e-04  7.2737900941436100e-04  4.9793731170310099e-04  2.8317192510688311e-04  8.9431232685401971e-05  -6.1259187782753273e-05  -1.2504947902402611e-04  -2.0876182523620195e-05  2.5300488040633746e-05  -4.7267815688598817e-04  -1.1487525655923827e-03  -1.8624819972911696e-03  -2.5163680410570360e-03  -3.0423297428288131e-03  -3.3975280291538329e-03  -3.5624542051601159e-03  -3.5387337254428474e-03  -3.3462156601964978e-03  -3.0186462619893788e-03  -2.5984431932882632e-03  -2.1312074650307977e-03  -1.6606720978054371e-03  -1.2245764038727278e-03  -8.5170445962028660e-04  -5.6009671209523049e-04  -3.5630070580742313e-04  -2.3548927866142935e-04  -1.8232924182745721e-04  -1.7258047871896416e-04  -1.7546455470246865e-04  -1.5678075444150178e-04  -8.2530308109527865e-05  7.7504020995328572e-05  3.4702373503690234e-04  7.4210985799608891e-04  1.2721372322841336e-03  1.9424073102103831e-03  2.7575003185703298e-03  3.7240043075091934e-03  4.8515171183220150e-03  6.1515564063590392e-03  7.6348658983101487e-03  9.3081086888237036e-03  1.1170869059405933e-02  1.3213426543117641e-02  1.5415332934501331e-02  1.7744693104798082e-02  2.0158175322332737e-02  2.2601917483824927e-02  2.5013484233827547e-02  2.7324866985872904e-02  2.9466303331592118e-02  3.1370507062730965e-02  3.2976798116966320e-02  3.4234619221325091e-02  3.5106027391989883e-02  3.5566927404261990e-02  3.5607023463755369e-02  3.5228658280596646e-02  3.4444837996121296e-02  3.3276795673396337e-02  3.1751431763443715e-02  2.9898904998734054e-02  2.7750560457619186e-02  2.5337296753279694e-02  2.2688402237067546e-02  1.9830839146711653e-02  1.6788924911708202e-02  1.3584346747902768e-02  1.0236446402868275e-02  6.7627151193908669e-03  3.1794504831446618e-03  -4.9746398074887162e-04  -4.2516928102025219e-03  -8.0655243324647199e-03  -1.1918921461394156e-02  -1.5788583694420145e-02  -1.9647066403039492e-02  -2.3462015699992220e-02  -2.7195590892875921e-02  -3.0804160827561700e-02  -3.4238367855118280e-02  -3.7443657801956833e-02  -4.0361361834888747e-02  -4.2930388425452944e-02  -4.5089536945431760e-02  -4.6780373267967669e-02  -4.7950525516460833e-02  -4.8557163828706396e-02  -4.8570346254651439e-02  -4.7975860316741240e-02  -4.6777183917218877e-02  -4.4996249223433642e-02  -4.2672815779683383e-02  -3.9862437166588903e-02  -3.6633203997400603e-02  -3.3061633239130028e-02  -2.9228205992859767e-02  -2.5213108523936521e-02  -2.1092693114636310e-02  -1.6937056773893754e-02  -1.2808960958706487e-02  -8.7641106691757967e-03  -4.8526032125384587e-03  -1.1211614629141168e-03  2.3844020220896928e-03  5.6171630996921735e-03  8.5282135394496861e-03  1.1067544018811366e-02  1.3187007360242449e-02  1.4845217539195998e-02  1.6013652765852669e-02  1.6682688670845793e-02  1.6866011136011789e-02  1.6602034401002424e-02  1.5951612623367011e-02  1.4992297575354497e-02  1.3810314132133650e-02  1.2491950594487329e-02  1.1116024824228096e-02  9.7485729677721424e-03  8.4401749526047953e-03  7.2256652148611359e-03  6.1255610540244922e-03  5.1484168837731062e-03  4.2934204064407344e-03  3.5527837054334416e-03  2.9137543955395908e-03  2.3603143962561417e-03  1.8748267983456322e-03  1.4399990681662339e-03  1.0416516998103802e-03  6.7264583590095060e-04  3.3861980761704775e-04  6.5467414691123781e-05  -9.1824249270286928e-05  -2.7524406451551970e-05  2.3025110775751443e-05  -8.2718004453309981e-04  -1.8339716653863695e-03  -2.8501795003394088e-03  -3.7595618620108969e-03  -4.4758073691755218e-03  -4.9436198244803787e-03  -5.1392660808197103e-03  -5.0684017974006526e-03  -4.7617593355852141e-03  -4.2686348677715693e-03  -3.6492529585071235e-03  -2.9670543946545462e-03  -2.2818421829459167e-03  -1.6443428269919654e-03  -1.0923750736515192e-03  -6.4854227786051205e-04  -3.1923744019071070e-04  -9.4766543911939258e-05  4.9485566917347530e-05  1.5078496301800692e-04  2.5556994353535833e-04  4.1481938710685625e-04  6.7871032189638228e-04  1.0914934483814711e-03  1.6878258371260330e-03  2.4916357247731628e-03  3.5178434955399993e-03  4.7761558442660926e-03  6.2752124982634752e-03  8.0251406713717395e-03  1.0037264432281976e-02  1.2320988992915531e-02  1.4879023312928692e-02  1.7702513349024382e-02  2.0767278112284938e-02  2.4031662447012336e-02  2.7436086001322961e-02  3.0904307412627743e-02  3.4346472841036958e-02  3.7663903906083131e-02  4.0755275387743338e-02  4.3523488499810435e-02  4.5882324578239674e-02  4.7761951699291344e-02  4.9112564200811108e-02  4.9905798598536964e-02  5.0133983300338435e-02  4.9807629374694837e-02  4.8951773245660975e-02  4.7601829656523306e-02  4.5799523554447365e-02  4.3589307082184503e-02  4.1015487220668272e-02  3.8120132755671658e-02  3.4941717225684586e-02  3.1514390731298615e-02  2.7867751075431373e-02  2.4026987465974647e-02  2.0013291417072841e-02  1.5844453392159459e-02  1.1535590007717464e-02  7.0999656720209430e-03  2.5498899891672252e-03  -2.1023203134058564e-03  -6.8433205429525613e-03  -1.1657665394655181e-02  -1.6526696888856579e-02  -2.1427415741100037e-02  -2.6331374729051803e-02  -3.1203649267529217e-02  -3.6001965803562061e-02  -4.0676090019304140e-02  -4.5167600386209809e-02  -4.9410186498729670e-02  -5.3330616889624545e-02  -5.6850501074415645e-02  -5.9888926027986802e-02  -6.2365969902211695e-02  -6.4206984112354024e-02  -6.5347398870041207e-02  -6.5737663803438762e-02  -6.5347812559103713e-02  -6.4171069897528785e-02  -6.2225937309147147e-02  -5.9556315591615221e-02  -5.6229452446465870e-02  -5.2331805357100414e-02  -4.7963237660295713e-02  -4.3230246160224937e-02  -3.8239088745849407e-02  -3.3089705338923796e-02  -2.7871199711016582e-02  -2.2659403552826862e-02  -1.7516731489429577e-02  -1.2494208635828778e-02  -7.6352487716741333e-03  -2.9804976416858333e-03  1.4271599052169154e-03  5.5384795798630124e-03  9.2957141686447614e-03  1.2633389493188461e-02  1.5482529638086800e-02  1.7778156302730226e-02  1.9468981289243025e-02  2.0527348518125290e-02  2.0957010389584241e-02  2.0796548134602324e-02  2.0117235473308355e-02  1.9015620641844391e-02  1.7602519204804871e-02  1.5990925101192554e-02  1.4285300811347970e-02  1.2573936438263987e-02  1.0924980823083659e-02  9.3857800098718740e-03  7.9845782711830456e-03  6.7334933722591143e-03  5.6318642678593722e-03  4.6694259292655591e-03  3.8291477157342945e-03  3.0899056726394086e-03  2.4293655469048705e-03  1.8276450916470445e-03  1.2721754390159882e-03  7.6456756441849866e-04  3.2947980354189365e-04  2.5406365145279749e-05  -3.0729955916424260e-05  1.9989043573156135e-05  -1.2603028314855341e-03  -2.6586021085799401e-03  -4.0164267013895923e-03  -5.1992792693286646e-03  -6.1042526316579084e-03  -6.6662283040990313e-03  -6.8609008492494673e-03  -6.7024109867216963e-03  -6.2370478552006029e-03  -5.5338282562843663e-03  -4.6738442012309346e-03  -3.7399896384173468e-03  -2.8082602750104523e-03  -1.9411766513508094e-03  -1.1833576108350142e-03  -5.5896247181187048e-04  -7.0658686865009992e-05  3.0009418268172840e-04  5.9142018739492418e-04  8.5784522000552973e-04  1.1653518991666888e-03  1.5848083029468827e-03  2.1845593507470399e-03  3.0236650587424467e-03  4.1475526108596152e-03  5.5873217219207186e-03  7.3626053560472840e-03  9.4862979532172337e-03  1.1968503986063720e-02  1.4817383428763747e-02  1.8036092965162925e-02  2.1616880052891679e-02  2.5534516790840046e-02  2.9741190924923080e-02  3.4164118318048255e-02  3.8706297319819033e-02  4.3250379195146273e-02  4.7665390158773545e-02  5.1815694644894050e-02  5