<?xml version="1.0"?>
<VTKFile type="UnstructuredGrid"  version="0.1"  >
<UnstructuredGrid>
<Piece  NumberOfPoints="16641" NumberOfCells="16384">
<Points>
<DataArray  type="Float64"  NumberOfComponents="3"  format="ascii">0 0 0  0.0078125 0 0  0.015625 0 0  0.0234375 0 0  0.03125 0 0  0.0390625 0 0  0.046875 0 0  0.0546875 0 0  0.0625 0 0  0.0703125 0 0  0.078125 0 0  0.0859375 0 0  0.09375 0 0  0.1015625 0 0  0.109375 0 0  0.1171875 0 0  0.125 0 0  0.1328125 0 0  0.140625 0 0  0.1484375 0 0  0.15625 0 0  0.1640625 0 0  0.171875 0 0  0.1796875 0 0  0.1875 0 0  0.1953125 0 0  0.203125 0 0  0.2109375 0 0  0.21875 0 0  0.2265625 0 0  0.234375 0 0  0.2421875 0 0  0.25 0 0  0.2578125 0 0  0.265625 0 0  0.2734375 0 0  0.28125 0 0  0.2890625 0 0  0.296875 0 0  0.3046875 0 0  0.3125 0 0  0.3203125 0 0  0.328125 0 0  0.3359375 0 0  0.34375 0 0  0.3515625 0 0  0.359375 0 0  0.3671875 0 0  0.375 0 0  0.3828125 0 0  0.390625 0 0  0.3984375 0 0  0.40625 0 0  0.4140625 0 0  0.421875 0 0  0.4296875 0 0  0.4375 0 0  0.4453125 0 0  0.453125 0 0  0.4609375 0 0  0.46875 0 0  0.4765625 0 0  0.484375 0 0  0.4921875 0 0  0.5 0 0  0.5078125 0 0  0.515625 0 0  0.5234375 0 0  0.53125 0 0  0.5390625 0 0  0.546875 0 0  0.5546875 0 0  0.5625 0 0  0.5703125 0 0  0.578125 0 0  0.5859375 0 0  0.59375 0 0  0.6015625 0 0  0.609375 0 0  0.6171875 0 0  0.625 0 0  0.6328125 0 0  0.640625 0 0  0.6484375 0 0  0.65625 0 0  0.6640625 0 0  0.671875 0 0  0.6796875 0 0  0.6875 0 0  0.6953125 0 0  0.703125 0 0  0.7109375 0 0  0.71875 0 0  0.7265625 0 0  0.734375 0 0  0.7421875 0 0  0.75 0 0  0.7578125 0 0  0.765625 0 0  0.7734375 0 0  0.78125 0 0  0.7890625 0 0  0.796875 0 0  0.8046875 0 0  0.8125 0 0  0.8203125 0 0  0.828125 0 0  0.8359375 0 0  0.84375 0 0  0.8515625 0 0  0.859375 0 0  0.8671875 0 0  0.875 0 0  0.8828125 0 0  0.890625 0 0  0.8984375 0 0  0.90625 0 0  0.9140625 0 0  0.921875 0 0  0.9296875 0 0  0.9375 0 0  0.9453125 0 0  0.953125 0 0  0.9609375 0 0  0.96875 0 0  0.9765625 0 0  0.984375 0 0  0.9921875 0 0  1 0 0  0 0.0078125 0  0.0078125 0.0078125 0  0.015625 0.0078125 0  0.0234375 0.0078125 0  0.03125 0.0078125 0  0.0390625 0.0078125 0  0.046875 0.0078125 0  0.0546875 0.0078125 0  0.0625 0.0078125 0  0.0703125 0.0078125 0  0.078125 0.0078125 0  0.0859375 0.0078125 0  0.09375 0.0078125 0  0.1015625 0.0078125 0  0.109375 0.0078125 0  0.1171875 0.0078125 0  0.125 0.0078125 0  0.1328125 0.0078125 0  0.140625 0.0078125 0  0.1484375 0.0078125 0  0.15625 0.0078125 0  0.1640625 0.0078125 0  0.171875 0.0078125 0  0.1796875 0.0078125 0  0.1875 0.0078125 0  0.1953125 0.0078125 0  0.203125 0.0078125 0  0.2109375 0.0078125 0  0.21875 0.0078125 0  0.2265625 0.0078125 0  0.234375 0.0078125 0  0.2421875 0.0078125 0  0.25 0.0078125 0  0.2578125 0.0078125 0  0.265625 0.0078125 0  0.2734375 0.0078125 0  0.28125 0.0078125 0  0.2890625 0.0078125 0  0.296875 0.0078125 0  0.3046875 0.0078125 0  0.3125 0.0078125 0  0.3203125 0.0078125 0  0.328125 0.0078125 0  0.3359375 0.0078125 0  0.34375 0.0078125 0  0.3515625 0.0078125 0  0.359375 0.0078125 0  0.3671875 0.0078125 0  0.375 0.0078125 0  0.3828125 0.0078125 0  0.390625 0.0078125 0  0.3984375 0.0078125 0  0.40625 0.0078125 0  0.4140625 0.0078125 0  0.421875 0.0078125 0  0.4296875 0.0078125 0  0.4375 0.0078125 0  0.4453125 0.0078125 0  0.453125 0.0078125 0  0.4609375 0.0078125 0  0.46875 0.0078125 0  0.4765625 0.0078125 0  0.484375 0.0078125 0  0.4921875 0.0078125 0  0.5 0.0078125 0  0.5078125 0.0078125 0  0.515625 0.0078125 0  0.5234375 0.0078125 0  0.53125 0.0078125 0  0.5390625 0.0078125 0  0.546875 0.0078125 0  0.5546875 0.0078125 0  0.5625 0.0078125 0  0.5703125 0.0078125 0  0.578125 0.0078125 0  0.5859375 0.0078125 0  0.59375 0.0078125 0  0.6015625 0.0078125 0  0.609375 0.0078125 0  0.6171875 0.0078125 0  0.625 0.0078125 0  0.6328125 0.0078125 0  0.640625 0.0078125 0  0.6484375 0.0078125 0  0.65625 0.0078125 0  0.6640625 0.0078125 0  0.671875 0.0078125 0  0.6796875 0.0078125 0  0.6875 0.0078125 0  0.6953125 0.0078125 0  0.703125 0.0078125 0  0.7109375 0.0078125 0  0.71875 0.0078125 0  0.7265625 0.0078125 0  0.734375 0.0078125 0  0.7421875 0.0078125 0  0.75 0.0078125 0  0.7578125 0.0078125 0  0.765625 0.0078125 0  0.7734375 0.0078125 0  0.78125 0.0078125 0  0.7890625 0.0078125 0  0.796875 0.0078125 0  0.8046875 0.0078125 0  0.8125 0.0078125 0  0.8203125 0.0078125 0  0.828125 0.0078125 0  0.8359375 0.0078125 0  0.84375 0.0078125 0  0.8515625 0.0078125 0  0.859375 0.0078125 0  0.8671875 0.0078125 0  0.875 0.0078125 0  0.8828125 0.0078125 0  0.890625 0.0078125 0  0.8984375 0.0078125 0  0.90625 0.0078125 0  0.9140625 0.0078125 0  0.921875 0.0078125 0  0.9296875 0.0078125 0  0.9375 0.0078125 0  0.9453125 0.0078125 0  0.953125 0.0078125 0  0.9609375 0.0078125 0  0.96875 0.0078125 0  0.9765625 0.0078125 0  0.984375 0.0078125 0  0.9921875 0.0078125 0  1 0.0078125 0  0 0.015625 0  0.0078125 0.015625 0  0.015625 0.015625 0  0.0234375 0.015625 0  0.03125 0.015625 0  0.0390625 0.015625 0  0.046875 0.015625 0  0.0546875 0.015625 0  0.0625 0.015625 0  0.0703125 0.015625 0  0.078125 0.015625 0  0.0859375 0.015625 0  0.09375 0.015625 0  0.1015625 0.015625 0  0.109375 0.015625 0  0.1171875 0.015625 0  0.125 0.015625 0  0.1328125 0.015625 0  0.140625 0.015625 0  0.1484375 0.015625 0  0.15625 0.015625 0  0.1640625 0.015625 0  0.171875 0.015625 0  0.1796875 0.015625 0  0.1875 0.015625 0  0.1953125 0.015625 0  0.203125 0.015625 0  0.2109375 0.015625 0  0.21875 0.015625 0  0.2265625 0.015625 0  0.234375 0.015625 0  0.2421875 0.015625 0  0.25 0.015625 0  0.2578125 0.015625 0  0.265625 0.015625 0  0.2734375 0.015625 0  0.28125 0.015625 0  0.2890625 0.015625 0  0.296875 0.015625 0  0.3046875 0.015625 0  0.3125 0.015625 0  0.3203125 0.015625 0  0.328125 0.015625 0  0.3359375 0.015625 0  0.34375 0.015625 0  0.3515625 0.015625 0  0.359375 0.015625 0  0.3671875 0.015625 0  0.375 0.015625 0  0.3828125 0.015625 0  0.390625 0.015625 0  0.3984375 0.015625 0  0.40625 0.015625 0  0.4140625 0.015625 0  0.421875 0.015625 0  0.4296875 0.015625 0  0.4375 0.015625 0  0.4453125 0.015625 0  0.453125 0.015625 0  0.4609375 0.015625 0  0.46875 0.015625 0  0.4765625 0.015625 0  0.484375 0.015625 0  0.4921875 0.015625 0  0.5 0.015625 0  0.5078125 0.015625 0  0.515625 0.015625 0  0.5234375 0.015625 0  0.53125 0.015625 0  0.5390625 0.015625 0  0.546875 0.015625 0  0.5546875 0.015625 0  0.5625 0.015625 0  0.5703125 0.015625 0  0.578125 0.015625 0  0.5859375 0.015625 0  0.59375 0.015625 0  0.6015625 0.015625 0  0.609375 0.015625 0  0.6171875 0.015625 0  0.625 0.015625 0  0.6328125 0.015625 0  0.640625 0.015625 0  0.6484375 0.015625 0  0.65625 0.015625 0  0.6640625 0.015625 0  0.671875 0.015625 0  0.6796875 0.015625 0  0.6875 0.015625 0  0.6953125 0.015625 0  0.703125 0.015625 0  0.7109375 0.015625 0  0.71875 0.015625 0  0.7265625 0.015625 0  0.734375 0.015625 0  0.7421875 0.015625 0  0.75 0.015625 0  0.7578125 0.015625 0  0.765625 0.015625 0  0.7734375 0.015625 0  0.78125 0.015625 0  0.7890625 0.015625 0  0.796875 0.015625 0  0.8046875 0.015625 0  0.8125 0.015625 0  0.8203125 0.015625 0  0.828125 0.015625 0  0.8359375 0.015625 0  0.84375 0.015625 0  0.8515625 0.015625 0  0.859375 0.015625 0  0.8671875 0.015625 0  0.875 0.015625 0  0.8828125 0.015625 0  0.890625 0.015625 0  0.8984375 0.015625 0  0.90625 0.015625 0  0.9140625 0.015625 0  0.921875 0.015625 0  0.9296875 0.015625 0  0.9375 0.015625 0  0.9453125 0.015625 0  0.953125 0.015625 0  0.9609375 0.015625 0  0.96875 0.015625 0  0.9765625 0.015625 0  0.984375 0.015625 0  0.9921875 0.015625 0  1 0.015625 0  0 0.0234375 0  0.0078125 0.0234375 0  0.015625 0.0234375 0  0.0234375 0.0234375 0  0.03125 0.0234375 0  0.0390625 0.0234375 0  0.046875 0.0234375 0  0.0546875 0.0234375 0  0.0625 0.0234375 0  0.0703125 0.0234375 0  0.078125 0.0234375 0  0.0859375 0.0234375 0  0.09375 0.0234375 0  0.1015625 0.0234375 0  0.109375 0.0234375 0  0.1171875 0.0234375 0  0.125 0.0234375 0  0.1328125 0.0234375 0  0.140625 0.0234375 0  0.1484375 0.0234375 0  0.15625 0.0234375 0  0.1640625 0.0234375 0  0.171875 0.0234375 0  0.1796875 0.0234375 0  0.1875 0.0234375 0  0.1953125 0.0234375 0  0.203125 0.0234375 0  0.2109375 0.0234375 0  0.21875 0.0234375 0  0.2265625 0.0234375 0  0.234375 0.0234375 0  0.2421875 0.0234375 0  0.25 0.0234375 0  0.2578125 0.0234375 0  0.265625 0.0234375 0  0.2734375 0.0234375 0  0.28125 0.0234375 0  0.2890625 0.0234375 0  0.296875 0.0234375 0  0.3046875 0.0234375 0  0.3125 0.0234375 0  0.3203125 0.0234375 0  0.328125 0.0234375 0  0.3359375 0.0234375 0  0.34375 0.0234375 0  0.3515625 0.0234375 0  0.359375 0.0234375 0  0.3671875 0.0234375 0  0.375 0.0234375 0  0.3828125 0.0234375 0  0.390625 0.0234375 0  0.3984375 0.0234375 0  0.40625 0.0234375 0  0.4140625 0.0234375 0  0.421875 0.0234375 0  0.4296875 0.0234375 0  0.4375 0.0234375 0  0.4453125 0.0234375 0  0.453125 0.0234375 0  0.4609375 0.0234375 0  0.46875 0.0234375 0  0.4765625 0.0234375 0  0.484375 0.0234375 0  0.4921875 0.0234375 0  0.5 0.0234375 0  0.5078125 0.0234375 0  0.515625 0.0234375 0  0.5234375 0.0234375 0  0.53125 0.0234375 0  0.5390625 0.0234375 0  0.546875 0.0234375 0  0.5546875 0.0234375 0  0.5625 0.0234375 0  0.5703125 0.0234375 0  0.578125 0.0234375 0  0.5859375 0.0234375 0  0.59375 0.0234375 0  0.6015625 0.0234375 0  0.609375 0.0234375 0  0.6171875 0.0234375 0  0.625 0.0234375 0  0.6328125 0.0234375 0  0.640625 0.0234375 0  0.6484375 0.0234375 0  0.65625 0.0234375 0  0.6640625 0.0234375 0  0.671875 0.0234375 0  0.6796875 0.0234375 0  0.6875 0.0234375 0  0.6953125 0.0234375 0  0.703125 0.0234375 0  0.7109375 0.0234375 0  0.71875 0.0234375 0  0.7265625 0.0234375 0  0.734375 0.0234375 0  0.7421875 0.0234375 0  0.75 0.0234375 0  0.7578125 0.0234375 0  0.765625 0.0234375 0  0.7734375 0.0234375 0  0.78125 0.0234375 0  0.7890625 0.0234375 0  0.796875 0.0234375 0  0.8046875 0.0234375 0  0.8125 0.0234375 0  0.8203125 0.0234375 0  0.828125 0.0234375 0  0.8359375 0.0234375 0  0.84375 0.0234375 0  0.8515625 0.0234375 0  0.859375 0.0234375 0  0.8671
[...]
<PointData  Scalars="u_sol"> 
<DataArray  type="Float64"  Name="u_sol"  format="ascii">9.2644228605939123e-23  -1.5881867761018136e-22  -1.7205356741102980e-22  2.4370633254899047e-22  -5.1431242666630514e-21  4.2351647362715024e-21  -1.1223186551119479e-20  4.9171348944159019e-20  -2.9233496181125759e-20  -1.6517142471458860e-20  1.0905549195899120e-20  -7.7429068418638709e-20  2.6133530682694083e-20  -6.1833405149563937e-20  -7.9409338805090669e-20  -1.3552527130136579e-20  9.8255821875015762e-20  1.6940658945086004e-20  -4.2351647362714987e-21  8.7184836563089132e-21  -2.9284675226214851e-20  -1.4738373282224828e-19  -1.7364175418713178e-20  8.5003433791314923e-20  -1.8388118432065434e-19  -1.0164395367051610e-20  1.1096131609031342e-19  -1.6905586487113751e-19  -2.2878657690359162e-19  1.8295911660692904e-19  -1.5415999640028276e-19  3.9683503982146183e-19  -4.4998651331090212e-20  1.3213713977167085e-19  -1.9566461081574352e-19  2.7238726699126185e-19  3.1137394362211091e-19  -8.1315162936412796e-20  -1.4230153513872263e-19  -3.7600442211209088e-22  -3.7937675926439828e-19  2.1006417091906639e-19  -4.8619691172396859e-19  -3.5384801371548411e-19  -1.2837843106822982e-19  -2.1006417091906658e-19  5.9461712897251913e-19  -5.4210427925563287e-19  2.4394628706245859e-19  -1.0164395367051602e-19  -1.9142944607947197e-19  1.4572937159714237e-19  1.8040809159781534e-19  3.7269449679189200e-19  2.3208702754767853e-19  4.5164194625705565e-19  -1.1291048656426389e-19  -4.1335207826009818e-19  2.1175823681357508e-19  -7.2551018910291157e-19  1.8137754727572760e-19  -1.1519648082658477e-19  3.5405977195229730e-19  -2.8213310468080082e-19  1.7895349341875061e-19  3.7947076036992646e-19  -9.6222942808088576e-19  7.6607512634251080e-19  -8.3098564337077112e-20  -2.4394548880923888e-19  4.9466724119651140e-19  -7.0532313637505647e-19  7.1843187033651617e-19  -1.2874900798265363e-19  -5.0991383424708938e-19  1.6395381485291044e-19  -9.0835019170162983e-19  2.3039296165317032e-19  -5.7598240413292339e-20  -5.4180317008954011e-19  -4.0665029372036772e-19  6.1663998560113036e-19  -1.5415999640028300e-19  -7.9265078506261361e-19  -3.4393838997709764e-19  -7.4538899358378502e-20  -4.1504614415460693e-19  1.3606338663134887e-18  -5.5699890107547345e-19  -8.1315162936412784e-20  2.3716922523120400e-19  4.7964564127254870e-19  -7.7043271380943861e-19  2.8460307027744472e-19  -1.7957098481791136e-19  3.7473522962565029e-20  2.0747205375646000e-19  1.3552527156068796e-20  3.2187251995663398e-19  1.0569382994957564e-19  -2.6423457487393943e-20  -1.6601845766184301e-19  -1.2705494208814526e-20  4.9172419942854764e-19  -6.1082202747561521e-19  -1.7279472123987708e-19  5.3108965792844496e-19  -3.5792435977414519e-19  -1.8939127305014161e-20  -4.0657581468206464e-20  1.0164395367051583e-20  1.8968194579426779e-19  -7.4525540760704794e-20  -3.2187251995663401e-20  6.2256921623190955e-20  -1.0566901453119893e-19  1.6194252519348789e-19  -2.0328790734103226e-20  -8.9785492408955667e-20  6.7077278024614289e-20  3.7440789118121836e-20  1.2705494208814489e-20  1.0376153603865179e-20  -3.4550837557028662e-20  -1.1691081344845979e-20  1.1540823906339827e-20  -2.8852059765849444e-21  1.3234889800848452e-21  -4.2351647362715261e-22  -1.5413007444401128e-07  7.6833086877191835e-07  3.5107910135116424e-06  8.0268035405681436e-06  1.4271915233349346e-05  2.2200169185678980e-05  3.1765089617695594e-05  4.2919468772359600e-05  5.5615463147213833e-05  6.9804598646665427e-05  8.5437795395921967e-05  1.0246538468741476e-04  1.2083712672839779e-04  1.4050222764935784e-04  1.6140935667353641e-04  1.8350666351996358e-04  2.0674179622948616e-04  2.3106191950740814e-04  2.5641373366140174e-04  2.8274349419117156e-04  3.0999703207526568e-04  3.3811977479199635e-04  3.6705676810611500e-04  3.9675269864916619e-04  4.2715191731894408e-04  4.5819846352176908e-04  4.8983609028022980e-04  5.2200829022825855e-04  5.5465832251497043e-04  5.8772924063852511e-04  6.2116392123107318e-04  6.5490509381599491e-04  6.8889537155867730e-04  7.2307728303221640e-04  7.5739330501976940e-04  7.9178589637540471e-04  8.2619753296568393e-04  8.6057074371445640e-04  8.9484814777373287e-04  9.2897249284381363e-04  9.6288669466620925e-04  9.9653387771328700e-04  1.0298574170989610e-03  1.0628009817351056e-03  1.0953085787588144e-03  1.1273245992560056e-03  1.1587938653073329e-03  1.1896616783827426e-03  1.2198738691114803e-03  1.2493768484548148e-03  1.2781176603091039e-03  1.3060440355674250e-03  1.3331044476683216e-03  1.3592481696607902e-03  1.3844253328150029e-03  1.4085869868088862e-03  1.4316851615210279e-03  1.4536729304609800e-03  1.4745044758684809e-03  1.4941351555136585e-03  1.5125215712308161e-03  1.5296216392188795e-03  1.5453946621421417e-03  1.5598014030655594e-03  1.5728041612592752e-03  1.5843668499077655e-03  1.5944550757593893e-03  1.6030362207528868e-03  1.6100795256578607e-03  1.6155561757668698e-03  1.6194393886774122e-03  1.6217045042026699e-03  1.6223290764504990e-03  1.6212929681108732e-03  1.6185784469924741e-03  1.6141702848498848e-03  1.6080558585435394e-03  1.6002252535751479e-03  1.5906713700422101e-03  1.5793900310555767e-03  1.5663800936651341e-03  1.5516435623391220e-03  1.5351857050434194e-03  1.5170151719679601e-03  1.4971441169480430e-03  1.4755883216292240e-03  1.4523673224251527e-03  1.4275045403185803e-03  1.4010274135565798e-03  1.3729675332917292e-03  1.3433607822221144e-03  1.3122474762835405e-03  1.2796725094484181e-03  1.2456855016866094e-03  1.2103409501444736e-03  1.1736983835990635e-03  1.1358225202456067e-03  1.0967834288771305e-03  1.0566566935159968e-03  1.0155235815581831e-03  9.7347121549185586e-04  9.3059274825268664e-04  8.8698754227920038e-04  8.4276135233208303e-04  7.9802651214195739e-04  7.5290212495049034e-04  7.0751425800972927e-04  6.6199614110420610e-04  6.1648836915921415e-04  5.7113910899673169e-04  5.2610431029687641e-04  4.8154792081720615e-04  4.3764210591322445e-04  3.9456747238933871e-04  3.5251329668834944e-04  3.1167775739140627e-04  2.7226817195429433e-04  2.3450123749051645e-04  1.9860327537998614e-04  1.6481047884175053e-04  1.3336916372268744e-04  1.0453601639661780e-04  7.8578352465174864e-05  5.5774318807063632e-05  3.6413260327261015e-05  2.0795366938146924e-05  9.2337844870476284e-06  2.0470803772714272e-06  -4.1303608822502478e-07  -3.0099798781916023e-07  1.5004712061318036e-06  6.8562976194703759e-06  1.5675675647571076e-05  2.7871566043930981e-05  4.3354159765123330e-05  6.2032669899748607e-05  8.3814907317446239e-05  1.0860744985475546e-04  1.3631564797421817e-04  1.6684367010201548e-04  2.0009453462312545e-04  2.3597014400118609e-04  2.7437131782751765e-04  3.1519782633150905e-04  3.5834842442022485e-04  4.0372088657111014e-04  4.5121204274060033e-04  5.0071781543209047e-04  5.5213325802939181e-04  6.0535259448278036e-04  6.6026926041979836e-04  7.1677594574317714e-04  7.7476463877123713e-04  8.3412667197129678e-04  8.9475276933334395e-04  9.5653309542886953e-04  1.0193573061983415e-03  1.0831146015097932e-03  1.1476937795304397e-03  1.2129832929530626e-03  1.2788713071188230e-03  1.3452457600783214e-03  1.4119944246330711e-03  1.4790049723998344e-03  1.5461650399408605e-03  1.6133622970034938e-03  1.6804845169132703e-03  1.7474196491652073e-03  1.8140558942586738e-03  1.8802817808219337e-03  1.9459862450731033e-03  2.0110587126651075e-03  2.0753891829629069e-03  2.1388683158020377e-03  2.2013875207783974e-03  2.2628390491198701e-03  2.3231160881914269e-03  2.3821128586859128e-03  2.4397247145538522e-03  2.4958482457263179e-03  2.5503813836858110e-03  2.6032235099411358e-03  2.6542755674629111e-03  2.7034401751376102e-03  2.7506217452986825e-03  2.7957266043944673e-03  2.8386631168534578e-03  2.8793418122085423e-03  2.9176755155428335e-03  2.9535794813206478e-03  2.9869715306684082e-03  3.0177721921710310e-03  3.0459048462506784e-03  3.0712958731956962e-03  3.0938748049086791e-03  3.1135744804437582e-03  3.1303312054042475e-03  3.1440849152731139e-03  3.1547793427496372e-03  3.1623621891671270e-03  3.1667853000673886e-03  3.1680048450093302e-03  3.1659815016897917e-03  3.1606806444564317e-03  3.1520725372934412e-03  3.1401325313623234e-03  3.1248412671813180e-03  3.1061848815281739e-03  3.0841552191526638e-03  3.0587500493863000e-03  3.0299732877383276e-03  2.9978352225683829e-03  2.9623527469277012e-03  2.9235495956622293e-03  2.8814565878724557e-03  2.8361118748263577e-03  2.7875611934232900e-03  2.7358581253083248e-03  2.6810643617381038e-03  2.6232499743007840e-03  2.5624936915943949e-03  2.4988831819695366e-03  2.4325153424440004e-03  2.3634965938984982e-03  2.2919431826645270e-03  2.2179814886169424e-03  2.1417483398853978e-03  2.0633913343007454e-03  1.9830691676936685e-03  1.9009519691645755e-03  1.8172216434451690e-03  1.7320722204730180e-03  1.6457102123017568e-03  1.5583549774697641e-03  1.4702390929502980e-03  1.3816087338053649e-03  1.2927240606635502e-03  1.2038596151387800e-03  1.1153047233011348e-03  1.0273639073019398e-03  9.4035730524162392e-04  8.5462109934800071e-04  7.7050795250133781e-04  6.8838745309644073e-04  6.0864656815719177e-04  5.3169010452579560e-04  4.5794117772658243e-04  3.8784168805445303e-04  3.2185280224681571e-04  2.6045544136003759e-04  2.0415076351756859e-04  1.5346066910871181e-04  1.0892820149410945e-04  7.1118278225633049e-05  4.0617068489058243e-05  1.8036221691177190e-05  3.9987227993410228e-06  -8.0683274882906743e-07  -4.4073440205711499e-07  2.1970415099811331e-06  1.0039093461064940e-05  2.2952284441647312e-05  4.0809067828501715e-05  6.3477852839454794e-05  9.0825673623414345e-05  1.2271753661962682e-04  1.5901665936299430e-04  1.9958447008365827e-04  2.4428067016114195e-04  2.9296327860098368e-04  3.4548868080643171e-04  4.0171167634916696e-04  4.6148552774980369e-04  5.2466201020884306e-04  5.9109146268201713e-04  6.6062284049139353e-04  7.3310376965661679e-04  8.0838060308736622e-04  8.8629847875677879e-04  9.6670137995755960e-04  1.0494321977301590e-03  1.1343327955433656e-03  1.2212440763013138e-03  1.3100060517463167e-03  1.4004579143237896e-03  1.4924381115733920e-03  1.5857844231090970e-03  1.6803340402501081e-03  1.7759236483641274e-03  1.8723895119843762e-03  1.9695675627620264e-03  2.0672934903159927e-03  2.1654028360426365e-03  2.2637310899484881e-03  2.3621137905699943e-03  2.4603866280449196e-03  2.5583855504011516e-03  2.6559468731293702e-03  2.7529073921072518e-03  2.8491044999437443e-03  2.9443763058131659e-03  3.0385617588498041e-03  3.1315007751750458e-03  3.2230343686300207e-03  3.3130047852880356e-03  3.4012556418222917e-03  3.4876320678055199e-03  3.5719808520195627e-03  3.6541505928540433e-03  3.7339918528746575e-03  3.8113573176429996e-03  3.8861019588709886e-03  3.9580832019945108e-03  4.0271610982521413e-03  4.0931985013563377e-03  4.1560612488457747e-03  4.2156183482090501e-03  4.2717421678714505e-03  4.3243086331378484e-03  4.3731974271865003e-03  4.4182921972098265e-03  4.4594807658000762e-03  4.4966553476790735e-03  4.5297127718730880e-03  4.5585547094353857e-03  4.5830879068206667e-03  4.6032244250173377e-03  4.6188818845452643e-03  4.6299837164281770e-03  4.6364594192521928e-03  4.6382448224228622e-03  4.6352823557359651e-03  4.6275213253780699e-03  4.6149181964757766e-03  4.5974368823134739e-03  4.5750490403421674e-03  4.5477343751034365e-03  4.5154809481945659e-03  4.4782854954033002e-03  4.4361537511420565e-03  4.3891007803143053e-03  4.3371513177470856e-03  4.2803401153265119e-03  4.2187122969747299e-03  4.1523237216093516e-03  4.0812413542283829e-03  4.0055436452659876e-03  3.9253209183668231e-03  3.8406757667287577e-03  3.7517234581662868e-03  3.6585923490492335e-03  3.5614243072736428e-03  3.4603751444242234e-03  3.3556150572898250e-03  3.2473290788960106e-03  3.1357175392208209e-03  3.0209965357620660e-03  2.9033984141266312e-03  2.7831722588140240e-03  2.6605843943680388e-03  2.5359188970719088e-03  2.4094781173627589e-03  2.2815832131416526e-03  2.1525746941544904e-03  2.0228129776171224e-03  1.8926789552539301e-03  1.7625745719129842e-03  1.6329234159108098e-03  1.5041713212450513e-03  1.3767869817913072e-03  1.2512625775687139e-03  1.1281144131118314e-03  1.0078835679207486e-03  8.9113655885701974e-04  7.7846601423221318e-04  6.7049135904259107e-04  5.6785951080615300e-04  4.7124558384433894e-04  3.8135360352588868e-04  2.9891721487351622e-04  2.2470042903425131e-04  1.5949822434300755e-04  1.0413765828588084e-04  5.9477011327442070e-05  2.6412195226944830e-05  5.8559954118777742e-06  -1.1816058496198845e-06  -5.7343912385440068e-07  2.8585527490561003e-06  1.3061629024756689e-05  2.9862351260615971e-05  5.3094674440627590e-05  8.2587316076035503e-05  1.1816723542851304e-04  1.5965877910492244e-04  2.0688398318301099e-04  2.5966256627877384e-04  3.1781200629615869e-04  3.8114759549300894e-04  4.4948250222077513e-04  5.2262783207035533e-04  6.0039269076450174e-04  6.8258424855166696e-04  7.6900780650764891e-04  8.5946686492926084e-04  9.5376319402012250e-04  1.0516969070278345e-03  1.1530665359737128e-03  1.2576691100985461e-03  1.3653002371354990e-03  1.4757541875117840e-03  1.5888239815737149e-03  1.7043014799247688e-03  1.8219774769626014e-03  1.9416417976984579e-03  2.0630833979408680e-03  2.1860904679243671e-03  2.3104505394636191e-03  2.4359505967132288e-03  2.5623771906136700e-03  2.6895165571042866e-03  2.8171547391849798e-03  2.9450777129090308e-03  3.0730715173903395e-03  3.2009223889096733e-03  3.3284168992052392e-03  3.4553420980345992e-03  3.5814856600958401e-03  3.7066360363973354e-03  3.8305826101670340e-03  3.9531158573931965e-03  4.0740275120904820e-03  4.1931107363862878e-03  4.3101602955241654e-03  4.4249727378824835e-03  4.5373465801081467e-03  4.6470824974668137e-03  4.7539835195127781e-03  4.8578552311832708e-03  4.9585059794235685e-03  5.0557470854513632e-03  5.1493930627701514e-03  5.2392618410436647e-03  5.3251749959447418e-03  5.4069579850942870e-03  5.4844403902075713e-03  5.5574561655671803e-03  5.6258438929436610e-03  5.6894470430873655e-03  5.7481142439161446e-03  5.8016995555265731e-03  5.8500627521575971e-03  5.8930696112380575e-03  5.9305922096515801e-03  5.9625092273543007e-03  5.9887062584832694e-03  6.0090761300955649e-03  6.0235192286802455e-03  6.0319438345877458e-03  6.0342664645235012e-03  6.0304122222550145e-03  6.0203151576839302e-03  6.0039186344370433e-03  5.9811757061328354e-03  5.9520495014822872e-03  5.9165136183855251e-03  5.8745525271884352e-03  5.8261619832656450e-03  5.7713494490993457e-03  5.7101345260258500e-03  5.6425493958245330e-03  5.5686392723265522e-03  5.4884628632235902e-03  5.4020928422597037e-03  5.3096163319919379e-03  5.2111353973087488e-03  5.1067675498976672e-03  4.9966462638568847e-03  4.8809215026483803e-03  4.7597602575928915e-03  4.6333470981103492e-03  4.5018847339121041e-03  4.3655945893540929e-03  4.2247173901632231e-03  4.0795137627515935e-03  3.9302648463361940e-03  3.7772729180836841e-03  3.6208620315022868e-03  3.4613786683044836e-03  3.2991924039652539e-03  3.1346965872014586e-03  2.9683090335970415e-03  2.8004727335975859e-03  2.6316565750936364e-03  2.4623560808069260e-03  2.2930941606840020e-03  2.1244218794885983e-03  1.9569192397642984e-03  1.7911959803109014e-03  1.6278923902787177e-03  1.4676801389288136e-03  1.3112631210316669e-03  1.1593783177610343e-03  1.0127966728188675e-03  8.7232398321298275e-04  7.3880180423423084e-04  6.1310836630187968e-04  4.9615950651613029e-04  3.8890959621219414e-04  2.9235252383622153e-04  2.0752249961606355e-04  1.3549554279964718e-04  7.7388435419402043e-05  3.4367158758131239e-05  7.6199574944322943e-06  -1.5375539355425779e-06  -6.9921860561114651e-07  3.4855399902010157e-06  1.5926391380417881e-05  3.6411647207754262e-05  6.4738739843780697e-05  1.0069874977607616e-04  1.4408064203017798e-04  1.9467021621395820e-04  2.5225047093201087e-04  3.1660159015277735e-04  3.8750103302035902e-04  4.6472359817171588e-04  5.4804149711860310e-04  6.3722442755119490e-04  7.3203964922937683e-04  8.3225206200944252e-04  9.3762428639783055e-04  1.0479167467853441e-03  1.1628877575586589e-03  1.2822936122523164e-03  1.4058886758929892e-03  1.5334254806735491e-03  1.6646548250838543e-03  1.7993258766169080e-03  1.9371862781623584e-03  2.0779822581945811e-03  2.2214587448590034e-03  2.3673594840577924e-03  2.5154271616344053e-03  2.6654035297554888e-03  2.8170295375882274e-03  2.9700454663710652e-03  3.1241910689761864e-03  3.2792057140626466e-03  3.4348285349199100e-03  3.5907985831023655e-03  3.7468549869569328e-03  3.9027371151465363e-03  4.0581847452742948e-03  4.2129382377140596e-03  4.3667387147550158e-03  4.5193282451693358e-03  4.6704500343136392e-03  4.8198486198768554e-03  4.9672700733885689e-03  5.1124622076040979e-03  5.2551747898840718e-03  5.3951597616884676e-03  5.5321714643067716e-03  5.6659668709480703e-03  5.7963058253168035e-03  5.9229512868018549e-03  6.0456695824091765e-03  6.1642306655694482e-03  6.2784083819554795e-03  6.3879807424450938e-03  6.4927302033686235e-03  6.5924439541812496e-03  6.6869142127037717e-03  6.7759385280768223e-03  6.8593200915766017e-03  6.9368680554420196e-03  7.0083978598660512e-03  7.0737315683062829e-03  7.1326982112722122e-03  7.1851341387493481e-03  7.2308833814229562e-03  7.2697980208665290e-03  7.3017385688632225e-03  7.3265743560305165e-03  7.3441839299219379e-03  7.3544554627816821e-03  7.3572871691311896e-03  7.3525877333696340e-03  7.3402767475729174e-03  7.3202851596789031e-03  7.2925557322496464e-03  7.2570435120040680e-03  7.2137163103181932e-03  7.1625551948923810e-03  7.1035549927890747e-03  7.0367248050468290e-03  6.9620885330804894e-03  6.8796854170798775e-03  6.7895705866234972e-03  6.6918156237263469e-03  6.5865091385447416e-03  6.4737573579646164e-03  6.3536847273027554e-03  6.2264345253543168e-03  6.0921694930233545e-03  5.9510724757764425e-03  5.8033470801632982e-03  5.6492183446513649e-03  5.4889334250252360e-03  5.3227622946047087e-03  5.1509984595389429e-03  4.9739596894369433e-03  4.7919887635978591e-03  4.6054542331069679e-03  4.4147511990656526e-03  4.2203021072253514e-03  4.0225575592966346e-03  3.8219971412046293e-03  3.6191302685613610e-03  3.4144970496225338e-03  3.2086691659922346e-03  3.0022507713312334e-03  2.7958794083137932e-03  2.5902269440620110e-03  2.3860005242644635e-03  2.1839435461551504e-03  1.9848366504870551e-03  1.7894987325772686e-03  1.5987879724278370e-03  1.4136028838172474e-03  1.2348833821645639e-03  1.0636118706736639e-03  9.0081434456624695e-04  7.4756151115455444e-04  6.0496993020742326e-04  4.7420315328939759e-04  3.5647293696054299e-04  2.5304024755851444e-04  1.6521711338537924e-04  9.4365396306521598e-05  4.1907163194077620e-05  9.2919107105423755e-06  -1.8749360051405047e-06  -8.1818276690673883e-07  4.0785532227858036e-06  1.8635913529022153e-05  4.2606007633212311e-05  7.5751700021992914e-05  1.1782845725616828e-04  1.6858929805255943e-04  2.2778355593568148e-04  2.9515730163808229e-04  3.7045332335314626e-04  4.5341122866963458e-04  5.4376751732215995e-04  6.4125566518722689e-04  7.4560620872237175e-04  8.5654683284589405e-04  9.7380246161833401e-04  1.0970953520962395e-03  1.2261451914721111e-03  1.3606691976833778e-03  1.5003822236478454e-03  1.6449968652799429e-03  1.7942235734325377e-03  1.9477707699019756e-03  2.1053449676276246e-03  2.2666508952120384e-03  2.4313916258838692e-03  2.5992687110227368e-03  2.7699823183628641e-03  2.9432313749912929e-03  3.1187137152552673e-03  3.2961262336933602e-03  3.4751650431049481e-03  3.6555256378731187e-03  3.8369030626567934e-03  4.0189920865688648e-03  4.2014873829584439e-03  4.3840837149163496e-03  4.5664761266248710e-03  4.7483601406739578e-03  4.9294319614682398e-03  5.1093886848504909e-03  5.2879285140695082e-03  5.4647509822219947e-03  5.6395571813002820e-03  5.8120499979794635e-03  5.9819343562801395e-03  6.1489174672443971e-03  6.3127090857658550e-03  6.4730217747156760e-03  6.6295711765099021e-03  6.7820762922649680e-03  6.9302597686911813e-03  7.073