<?xml version="1.0"?>
<VTKFile type="UnstructuredGrid"  version="0.1"  >
<UnstructuredGrid>
<Piece  NumberOfPoints="16641" NumberOfCells="16384">
<Points>
<DataArray  type="Float64"  NumberOfComponents="3"  format="ascii">0 0 0  0.0078125 0 0  0.015625 0 0  0.0234375 0 0  0.03125 0 0  0.0390625 0 0  0.046875 0 0  0.0546875 0 0  0.0625 0 0  0.0703125 0 0  0.078125 0 0  0.0859375 0 0  0.09375 0 0  0.1015625 0 0  0.109375 0 0  0.1171875 0 0  0.125 0 0  0.1328125 0 0  0.140625 0 0  0.1484375 0 0  0.15625 0 0  0.1640625 0 0  0.171875 0 0  0.1796875 0 0  0.1875 0 0  0.1953125 0 0  0.203125 0 0  0.2109375 0 0  0.21875 0 0  0.2265625 0 0  0.234375 0 0  0.2421875 0 0  0.25 0 0  0.2578125 0 0  0.265625 0 0  0.2734375 0 0  0.28125 0 0  0.2890625 0 0  0.296875 0 0  0.3046875 0 0  0.3125 0 0  0.3203125 0 0  0.328125 0 0  0.3359375 0 0  0.34375 0 0  0.3515625 0 0  0.359375 0 0  0.3671875 0 0  0.375 0 0  0.3828125 0 0  0.390625 0 0  0.3984375 0 0  0.40625 0 0  0.4140625 0 0  0.421875 0 0  0.4296875 0 0  0.4375 0 0  0.4453125 0 0  0.453125 0 0  0.4609375 0 0  0.46875 0 0  0.4765625 0 0  0.484375 0 0  0.4921875 0 0  0.5 0 0  0.5078125 0 0  0.515625 0 0  0.5234375 0 0  0.53125 0 0  0.5390625 0 0  0.546875 0 0  0.5546875 0 0  0.5625 0 0  0.5703125 0 0  0.578125 0 0  0.5859375 0 0  0.59375 0 0  0.6015625 0 0  0.609375 0 0  0.6171875 0 0  0.625 0 0  0.6328125 0 0  0.640625 0 0  0.6484375 0 0  0.65625 0 0  0.6640625 0 0  0.671875 0 0  0.6796875 0 0  0.6875 0 0  0.6953125 0 0  0.703125 0 0  0.7109375 0 0  0.71875 0 0  0.7265625 0 0  0.734375 0 0  0.7421875 0 0  0.75 0 0  0.7578125 0 0  0.765625 0 0  0.7734375 0 0  0.78125 0 0  0.7890625 0 0  0.796875 0 0  0.8046875 0 0  0.8125 0 0  0.8203125 0 0  0.828125 0 0  0.8359375 0 0  0.84375 0 0  0.8515625 0 0  0.859375 0 0  0.8671875 0 0  0.875 0 0  0.8828125 0 0  0.890625 0 0  0.8984375 0 0  0.90625 0 0  0.9140625 0 0  0.921875 0 0  0.9296875 0 0  0.9375 0 0  0.9453125 0 0  0.953125 0 0  0.9609375 0 0  0.96875 0 0  0.9765625 0 0  0.984375 0 0  0.9921875 0 0  1 0 0  0 0.0078125 0  0.0078125 0.0078125 0  0.015625 0.0078125 0  0.0234375 0.0078125 0  0.03125 0.0078125 0  0.0390625 0.0078125 0  0.046875 0.0078125 0  0.0546875 0.0078125 0  0.0625 0.0078125 0  0.0703125 0.0078125 0  0.078125 0.0078125 0  0.0859375 0.0078125 0  0.09375 0.0078125 0  0.1015625 0.0078125 0  0.109375 0.0078125 0  0.1171875 0.0078125 0  0.125 0.0078125 0  0.1328125 0.0078125 0  0.140625 0.0078125 0  0.1484375 0.0078125 0  0.15625 0.0078125 0  0.1640625 0.0078125 0  0.171875 0.0078125 0  0.1796875 0.0078125 0  0.1875 0.0078125 0  0.1953125 0.0078125 0  0.203125 0.0078125 0  0.2109375 0.0078125 0  0.21875 0.0078125 0  0.2265625 0.0078125 0  0.234375 0.0078125 0  0.2421875 0.0078125 0  0.25 0.0078125 0  0.2578125 0.0078125 0  0.265625 0.0078125 0  0.2734375 0.0078125 0  0.28125 0.0078125 0  0.2890625 0.0078125 0  0.296875 0.0078125 0  0.3046875 0.0078125 0  0.3125 0.0078125 0  0.3203125 0.0078125 0  0.328125 0.0078125 0  0.3359375 0.0078125 0  0.34375 0.0078125 0  0.3515625 0.0078125 0  0.359375 0.0078125 0  0.3671875 0.0078125 0  0.375 0.0078125 0  0.3828125 0.0078125 0  0.390625 0.0078125 0  0.3984375 0.0078125 0  0.40625 0.0078125 0  0.4140625 0.0078125 0  0.421875 0.0078125 0  0.4296875 0.0078125 0  0.4375 0.0078125 0  0.4453125 0.0078125 0  0.453125 0.0078125 0  0.4609375 0.0078125 0  0.46875 0.0078125 0  0.4765625 0.0078125 0  0.484375 0.0078125 0  0.4921875 0.0078125 0  0.5 0.0078125 0  0.5078125 0.0078125 0  0.515625 0.0078125 0  0.5234375 0.0078125 0  0.53125 0.0078125 0  0.5390625 0.0078125 0  0.546875 0.0078125 0  0.5546875 0.0078125 0  0.5625 0.0078125 0  0.5703125 0.0078125 0  0.578125 0.0078125 0  0.5859375 0.0078125 0  0.59375 0.0078125 0  0.6015625 0.0078125 0  0.609375 0.0078125 0  0.6171875 0.0078125 0  0.625 0.0078125 0  0.6328125 0.0078125 0  0.640625 0.0078125 0  0.6484375 0.0078125 0  0.65625 0.0078125 0  0.6640625 0.0078125 0  0.671875 0.0078125 0  0.6796875 0.0078125 0  0.6875 0.0078125 0  0.6953125 0.0078125 0  0.703125 0.0078125 0  0.7109375 0.0078125 0  0.71875 0.0078125 0  0.7265625 0.0078125 0  0.734375 0.0078125 0  0.7421875 0.0078125 0  0.75 0.0078125 0  0.7578125 0.0078125 0  0.765625 0.0078125 0  0.7734375 0.0078125 0  0.78125 0.0078125 0  0.7890625 0.0078125 0  0.796875 0.0078125 0  0.8046875 0.0078125 0  0.8125 0.0078125 0  0.8203125 0.0078125 0  0.828125 0.0078125 0  0.8359375 0.0078125 0  0.84375 0.0078125 0  0.8515625 0.0078125 0  0.859375 0.0078125 0  0.8671875 0.0078125 0  0.875 0.0078125 0  0.8828125 0.0078125 0  0.890625 0.0078125 0  0.8984375 0.0078125 0  0.90625 0.0078125 0  0.9140625 0.0078125 0  0.921875 0.0078125 0  0.9296875 0.0078125 0  0.9375 0.0078125 0  0.9453125 0.0078125 0  0.953125 0.0078125 0  0.9609375 0.0078125 0  0.96875 0.0078125 0  0.9765625 0.0078125 0  0.984375 0.0078125 0  0.9921875 0.0078125 0  1 0.0078125 0  0 0.015625 0  0.0078125 0.015625 0  0.015625 0.015625 0  0.0234375 0.015625 0  0.03125 0.015625 0  0.0390625 0.015625 0  0.046875 0.015625 0  0.0546875 0.015625 0  0.0625 0.015625 0  0.0703125 0.015625 0  0.078125 0.015625 0  0.0859375 0.015625 0  0.09375 0.015625 0  0.1015625 0.015625 0  0.109375 0.015625 0  0.1171875 0.015625 0  0.125 0.015625 0  0.1328125 0.015625 0  0.140625 0.015625 0  0.1484375 0.015625 0  0.15625 0.015625 0  0.1640625 0.015625 0  0.171875 0.015625 0  0.1796875 0.015625 0  0.1875 0.015625 0  0.1953125 0.015625 0  0.203125 0.015625 0  0.2109375 0.015625 0  0.21875 0.015625 0  0.2265625 0.015625 0  0.234375 0.015625 0  0.2421875 0.015625 0  0.25 0.015625 0  0.2578125 0.015625 0  0.265625 0.015625 0  0.2734375 0.015625 0  0.28125 0.015625 0  0.2890625 0.015625 0  0.296875 0.015625 0  0.3046875 0.015625 0  0.3125 0.015625 0  0.3203125 0.015625 0  0.328125 0.015625 0  0.3359375 0.015625 0  0.34375 0.015625 0  0.3515625 0.015625 0  0.359375 0.015625 0  0.3671875 0.015625 0  0.375 0.015625 0  0.3828125 0.015625 0  0.390625 0.015625 0  0.3984375 0.015625 0  0.40625 0.015625 0  0.4140625 0.015625 0  0.421875 0.015625 0  0.4296875 0.015625 0  0.4375 0.015625 0  0.4453125 0.015625 0  0.453125 0.015625 0  0.4609375 0.015625 0  0.46875 0.015625 0  0.4765625 0.015625 0  0.484375 0.015625 0  0.4921875 0.015625 0  0.5 0.015625 0  0.5078125 0.015625 0  0.515625 0.015625 0  0.5234375 0.015625 0  0.53125 0.015625 0  0.5390625 0.015625 0  0.546875 0.015625 0  0.5546875 0.015625 0  0.5625 0.015625 0  0.5703125 0.015625 0  0.578125 0.015625 0  0.5859375 0.015625 0  0.59375 0.015625 0  0.6015625 0.015625 0  0.609375 0.015625 0  0.6171875 0.015625 0  0.625 0.015625 0  0.6328125 0.015625 0  0.640625 0.015625 0  0.6484375 0.015625 0  0.65625 0.015625 0  0.6640625 0.015625 0  0.671875 0.015625 0  0.6796875 0.015625 0  0.6875 0.015625 0  0.6953125 0.015625 0  0.703125 0.015625 0  0.7109375 0.015625 0  0.71875 0.015625 0  0.7265625 0.015625 0  0.734375 0.015625 0  0.7421875 0.015625 0  0.75 0.015625 0  0.7578125 0.015625 0  0.765625 0.015625 0  0.7734375 0.015625 0  0.78125 0.015625 0  0.7890625 0.015625 0  0.796875 0.015625 0  0.8046875 0.015625 0  0.8125 0.015625 0  0.8203125 0.015625 0  0.828125 0.015625 0  0.8359375 0.015625 0  0.84375 0.015625 0  0.8515625 0.015625 0  0.859375 0.015625 0  0.8671875 0.015625 0  0.875 0.015625 0  0.8828125 0.015625 0  0.890625 0.015625 0  0.8984375 0.015625 0  0.90625 0.015625 0  0.9140625 0.015625 0  0.921875 0.015625 0  0.9296875 0.015625 0  0.9375 0.015625 0  0.9453125 0.015625 0  0.953125 0.015625 0  0.9609375 0.015625 0  0.96875 0.015625 0  0.9765625 0.015625 0  0.984375 0.015625 0  0.9921875 0.015625 0  1 0.015625 0  0 0.0234375 0  0.0078125 0.0234375 0  0.015625 0.0234375 0  0.0234375 0.0234375 0  0.03125 0.0234375 0  0.0390625 0.0234375 0  0.046875 0.0234375 0  0.0546875 0.0234375 0  0.0625 0.0234375 0  0.0703125 0.0234375 0  0.078125 0.0234375 0  0.0859375 0.0234375 0  0.09375 0.0234375 0  0.1015625 0.0234375 0  0.109375 0.0234375 0  0.1171875 0.0234375 0  0.125 0.0234375 0  0.1328125 0.0234375 0  0.140625 0.0234375 0  0.1484375 0.0234375 0  0.15625 0.0234375 0  0.1640625 0.0234375 0  0.171875 0.0234375 0  0.1796875 0.0234375 0  0.1875 0.0234375 0  0.1953125 0.0234375 0  0.203125 0.0234375 0  0.2109375 0.0234375 0  0.21875 0.0234375 0  0.2265625 0.0234375 0  0.234375 0.0234375 0  0.2421875 0.0234375 0  0.25 0.0234375 0  0.2578125 0.0234375 0  0.265625 0.0234375 0  0.2734375 0.0234375 0  0.28125 0.0234375 0  0.2890625 0.0234375 0  0.296875 0.0234375 0  0.3046875 0.0234375 0  0.3125 0.0234375 0  0.3203125 0.0234375 0  0.328125 0.0234375 0  0.3359375 0.0234375 0  0.34375 0.0234375 0  0.3515625 0.0234375 0  0.359375 0.0234375 0  0.3671875 0.0234375 0  0.375 0.0234375 0  0.3828125 0.0234375 0  0.390625 0.0234375 0  0.3984375 0.0234375 0  0.40625 0.0234375 0  0.4140625 0.0234375 0  0.421875 0.0234375 0  0.4296875 0.0234375 0  0.4375 0.0234375 0  0.4453125 0.0234375 0  0.453125 0.0234375 0  0.4609375 0.0234375 0  0.46875 0.0234375 0  0.4765625 0.0234375 0  0.484375 0.0234375 0  0.4921875 0.0234375 0  0.5 0.0234375 0  0.5078125 0.0234375 0  0.515625 0.0234375 0  0.5234375 0.0234375 0  0.53125 0.0234375 0  0.5390625 0.0234375 0  0.546875 0.0234375 0  0.5546875 0.0234375 0  0.5625 0.0234375 0  0.5703125 0.0234375 0  0.578125 0.0234375 0  0.5859375 0.0234375 0  0.59375 0.0234375 0  0.6015625 0.0234375 0  0.609375 0.0234375 0  0.6171875 0.0234375 0  0.625 0.0234375 0  0.6328125 0.0234375 0  0.640625 0.0234375 0  0.6484375 0.0234375 0  0.65625 0.0234375 0  0.6640625 0.0234375 0  0.671875 0.0234375 0  0.6796875 0.0234375 0  0.6875 0.0234375 0  0.6953125 0.0234375 0  0.703125 0.0234375 0  0.7109375 0.0234375 0  0.71875 0.0234375 0  0.7265625 0.0234375 0  0.734375 0.0234375 0  0.7421875 0.0234375 0  0.75 0.0234375 0  0.7578125 0.0234375 0  0.765625 0.0234375 0  0.7734375 0.0234375 0  0.78125 0.0234375 0  0.7890625 0.0234375 0  0.796875 0.0234375 0  0.8046875 0.0234375 0  0.8125 0.0234375 0  0.8203125 0.0234375 0  0.828125 0.0234375 0  0.8359375 0.0234375 0  0.84375 0.0234375 0  0.8515625 0.0234375 0  0.859375 0.0234375 0  0.8671
[...]
<PointData  Scalars="v_sol"> 
<DataArray  type="Float64"  Name="v_sol"  format="ascii">2.3822801641527202e-22  1.5488865513173723e-07  3.0606843269947077e-07  4.5349813835441283e-07  5.9710659111803272e-07  7.3683014180117326e-07  8.7260953177195774e-07  1.0043886914000831e-06  1.1321138550817805e-06  1.2557331174193733e-06  1.3751961942583052e-06  1.4904543032941287e-06  1.6014601117695763e-06  1.7081677243715544e-06  1.8105326960204794e-06  1.9085120607498568e-06  2.0020643714031901e-06  2.0911497469388822e-06  2.1757299252884802e-06  2.2557683204796556e-06  2.3312300831645821e-06  2.4020821639847334e-06  2.4682933794043438e-06  2.5298344797492461e-06  2.5866782192882237e-06  2.6387994282343830e-06  2.6861750866081784e-06  2.7287843998981148e-06  2.7666088765096579e-06  2.7996324069802334e-06  2.8278413449667669e-06  2.8512245900108776e-06  2.8697736720923840e-06  2.8834828379885339e-06  2.8923491394707486e-06  2.8963725233409734e-06  2.8955559233589532e-06  2.8899053540645975e-06  2.8794300065447719e-06  2.8641423461554419e-06  2.8440582122494716e-06  2.8191969199219860e-06  2.7895813638295203e-06  2.7552381240938078e-06  2.7161975743380896e-06  2.6724939918920525e-06  2.6241656701912804e-06  2.5712550334159106e-06  2.5138087534046271e-06  2.4518778688762255e-06  2.3855179070006286e-06  2.3147890073646929e-06  2.2397560483544388e-06  2.1604887760159618e-06  2.0770619354129540e-06  1.9895554045454020e-06  1.8980543308477055e-06  1.8026492703298553e-06  1.7034363293837216e-06  1.6005173093227985e-06  1.4939998536774739e-06  1.3839975982966659e-06  1.2706303243152494e-06  1.1540241140121296e-06  1.0343115096242998e-06  9.1163167515295023e-07  7.8613056121350724e-07  6.5796107298249439e-07  5.2728324128680970e-07  3.9426439689003914e-07  2.5907934801635931e-07  1.2191056118611583e-07  -1.7051654609593146e-08  -1.5760896031225542e-07  -2.9955479576145285e-07  -4.4267418512762094e-07  -5.8674353877847653e-07  -7.3153045150706223e-07  -8.7679349707718284e-07  -1.0222820190274454e-06  -1.1677359176418737e-06  -1.3128854330864049e-06  -1.4574509245757657e-06  -1.6011426455669615e-06  -1.7436605148855872e-06  -1.8846938837204461e-06  -2.0239212984277463e-06  -2.1610102590746496e-06  -2.2956169736433238e-06  -2.4273861078442127e-06  -2.5559505304375087e-06  -2.6809310540213793e-06  -2.8019361711954091e-06  -2.9185617860129121e-06  -3.0303909406747583e-06  -3.1369935373585888e-06  -3.2379260551187093e-06  -3.3327312617705947e-06  -3.4209379206963577e-06  -3.5020604924548458e-06  -3.5755988311663219e-06  -3.6410378755645828e-06  -3.6978473346436387e-06  -3.7454813678683475e-06  -3.7833782598514253e-06  -3.8109600895080957e-06  -3.8276323936536880e-06  -3.8327838250809086e-06  -3.8257858052315432e-06  -3.8059921716149423e-06  -3.7727388203290639e-06  -3.7253433441829348e-06  -3.6631046673081758e-06  -3.5853026775741093e-06  -3.4911978590011453e-06  -3.3800309275424563e-06  -3.2510224758574525e-06  -3.1033726361036223e-06  -2.9362607760489549e-06  -2.7488452548413603e-06  -2.5402632850734422e-06  -2.3096309878495213e-06  -2.0560438057989586e-06  -1.7785776215032716e-06  -1.4762912683209961e-06  -1.1482323644891757e-06  -7.9344891254659796e-07  -4.1102450971554515e-07  3.1763735522036446e-22  -3.1763735522036272e-22  -7.6984802170322554e-07  -1.5212726645957908e-06  -2.2540385752115450e-06  -2.9678051708698445e-06  -3.6622603720878194e-06  -4.3371116118222676e-06  -4.9920809527633406e-06  -5.6269014435391294e-06  -6.2413151727795552e-06  -6.8350722019550723e-06  -7.4079300233642589e-06  -7.9596533235673981e-06  -8.4900139335445292e-06  -8.9987908965891150e-06  -9.4857706133574715e-06  -9.9507470393948261e-06  -1.0393521919886678e-05  -1.0813905051803748e-05  -1.1211714567184811e-05  -1.1586777233370624e-05  -1.1938928767397546e-05  -1.2268014162722883e-05  -1.2573888026980610e-05  -1.2856414929947513e-05  -1.3115469761110683e-05  -1.3350938096525230e-05  -1.3562716574656174e-05  -1.3750713281132964e-05  -1.3914848142318619e-05  -1.4055053327703713e-05  -1.4171273661160224e-05  -1.4263467041100041e-05  -1.4331604869625289e-05  -1.4375672490811307e-05  -1.4395669638162815e-05  -1.4391610891456378e-05  -1.4363526143024762e-05  -1.4311461073700140e-05  -1.4235477638491335e-05  -1.4135654562221336e-05  -1.4012087845216817e-05  -1.3864891279278091e-05  -1.3694196974044578e-05  -1.3500155893940450e-05  -1.3282938405909515e-05  -1.3042734838055500e-05  -1.2779756049418749e-05  -1.2494234011056248e-05  -1.2186422398596333e-05  -1.1856597196474797e-05  -1.1505057314061053e-05  -1.1132125213817213e-05  -1.0738147551752486e-05  -1.0323495830309574e-05  -9.8885670639650959e-06  -9.4337844576568910e-06  -8.9595980983511632e-06  -8.4664856598509479e-06  -7.9549531211934477e-06  -7.4255354987389517e-06  -6.8787975922178084e-06  -6.3153347450107620e-06  -5.7357736188006164e-06  -5.1407729829193370e-06  -4.5310245185545022e-06  -3.9072536381056449e-06  -3.2702203199048245e-06  -2.6207199585837047e-06  -1.9595842313015513e-06  -1.2876819800955096e-06  -6.0592011065898961e-07  8.4755492257602007e-08  7.8335903247045007e-07  1.4888638528601961e-06  2.2002014683451849e-06  2.9162605811120671e-06  3.6358860777791543e-06  4.3578780082522058e-06  5.0809905459689998e-06  5.8039309291401097e-06  6.5253583828722070e-06  7.2438830216282904e-06  7.9580647319015515e-06  8.6664120346937953e-06  9.3673809274669941e-06  1.0059373705273832e-05  1.0740737760708164e-05  1.1409764362320427e-05  1.2064687411189857e-05  1.2703682175219928e-05  1.3324864000890794e-05  1.3926287002049009e-05  1.4505942725323914e-05  1.5061758791889236e-05  1.5591597515102084e-05  1.6093254493667917e-05  1.6564457179927700e-05  1.7002863422946432e-05  1.7406059985864375e-05  1.7771561037339090e-05  1.8096806616581224e-05  1.8379161071663577e-05  1.8615911470927407e-05  1.8804265987101226e-05  1.8941352254170549e-05  1.9024215696920248e-05  1.9049817833397565e-05  1.9015034550933356e-05  1.8916654356634449e-05  1.8751376604221635e-05  1.8515809699922617e-05  1.8206469292030063e-05  1.7819776451004949e-05  1.7352055851336322e-05  1.6799533972384429e-05  1.6158337346428200e-05  1.5424490899002156e-05  1.4593916456906622e-05  1.3662431551991741e-05  1.2625748744450615e-05  1.1479475873250303e-05  1.0219117996327564e-05  8.8400825632938703e-06  7.3376908507789126e-06  5.7072032920791441e-06  3.9438693356948600e-06  2.0430572180484765e-06  2.1175823681357631e-22  4.2351647362715017e-22  -3.4948203597385448e-06  -6.9060891309483381e-06  -1.0232477855560410e-05  -1.3472554242279581e-05  -1.6624942544300830e-05  -1.9688333802142054e-05  -2.2661473953582329e-05  -2.5543154167317112e-05  -2.8332204553306225e-05  -3.1027490511199352e-05  -3.3627910796479586e-05  -3.6132396691903744e-05  -3.8539911893219069e-05  -4.0849452866727538e-05  -4.3060049526955776e-05  -4.5170766138248820e-05  -4.7180702378580575e-05  -4.9088994525014955e-05  -5.0894816734140420e-05  -5.2597382399442879e-05  -5.4195945573392093e-05  -5.5689802446014430e-05  -5.7078292874145046e-05  -5.8360801957558781e-05  -5.9536761659230709e-05  -6.0605652468126206e-05  -6.1567005103234257e-05  -6.2420402258321639e-05  -6.3165480386998609e-05  -6.3801931528081689e-05  -6.4329505171320953e-05  -6.4748010163774184e-05  -6.5057316657126732e-05  -6.5257358096516133e-05  -6.5348133251209829e-05  -6.5329708287871222e-05  -6.5202218886835432e-05  -6.4965872402220748e-05  -6.4620950066355490e-05  -6.4167809239386965e-05  -6.3606885704631924e-05  -6.2938696010561915e-05  -6.2163839860032358e-05  -6.1283002547605521e-05  -6.0296957445777710e-05  -5.9206568540819609e-05  -5.8012793019143530e-05  -5.6716683904975204e-05  -5.5319392750178994e-05  -5.3822172377090399e-05  -5.2226379675302114e-05  -5.0533478453147387e-05  -4.8745042344931904e-05  -4.6862757774683307e-05  -4.4888426977518345e-05  -4.2823971079367363e-05  -4.0671433236198114e-05  -3.8432981833542197e-05  -3.6110913747497308e-05  -3.3707657668017777e-05  -3.1225777485589086e-05  -2.8667975742380264e-05  -2.6037097148777262e-05  -2.3336132166517840e-05  -2.0568220659345837e-05  -1.7736655612401710e-05  -1.4844886921381690e-05  -1.1896525252672117e-05  -8.8953459755117898e-06  -5.8452931673746453e-06  -2.7504836938143055e-06  3.8478863612161527e-07  3.5560488375867672e-06  6.7586364396964564e-06  9.9877010958958156e-06  1.3238198113732162e-05  1.6504883902716716e-05  1.9782311339032891e-05  2.3064825045730528e-05  2.6346556586885462e-05  2.9621419574700206e-05  3.2883104687709263e-05  3.6125074598990902e-05  3.9340558812827784e-05  4.2522548408262247e-05  4.5663790688196645e-05  4.8756783732409414e-05  5.1793770852966979e-05  5.4766734950489746e-05  5.7667392769613093e-05  6.0487189052097841e-05  6.3217290585935727e-05  6.5848580148693758e-05  6.8371650343589216e-05  7.0776797326473672e-05  7.3054014422073123e-05  7.5192985627805264e-05  7.7183079003594908e-05  7.9013339945800524e-05  8.0672484344074101e-05  8.2148891619417499e-05  8.3430597642239373e-05  8.4505287529501420e-05  8.5360288320112247e-05  8.5982561528614803e-05  8.6358695577719720e-05  8.6474898111462084e-05  8.6316988192476190e-05  8.5870388389093025e-05  8.5120116761727889e-05  8.4050778763023750e-05  8.2646559074514000e-05  8.0891213414135100e-05  7.8768060368090289e-05  7.6259973329104993e-05  7.3349372670676008e-05  7.0018218361790515e-05  6.6248003353772548e-05  6.2019748286392976e-05  5.7313998436962019e-05  5.2110824514608248e-05  4.6389830159283255e-05  4.0130171353067908e-05  3.3310597576275380e-05  2.5909532055445751e-05  1.7905222182815595e-05  9.2759513360066622e-06  4.2351647362715261e-22  -3.5265420938826421e-21  -7.9297723654278112e-06  -1.5669927652681262e-05  -2.3217235311831033e-05  -3.0568561417821943e-05  -3.7720866997312537e-05  -4.4671224658573706e-05  -5.1416809772181157e-05  -5.7954889127227005e-05  -6.4282812307060922e-05  -7.0398006215359525e-05  -7.6297972111098478e-05  -8.1980284449868348e-05  -8.7442590992023081e-05  -9.2682613799061563e-05  -9.7698150861395193e-05  -1.0248707818454634e-04  -1.0704735221731831e-04  -1.1137701254283893e-04  -1.1547418477855304e-04  -1.1933708364797955e-04  -1.2296401619847337e-04  -1.2635338514719325e-04  -1.2950369234270858e-04  -1.3241354233371202e-04  -1.3508164603878364e-04  -1.3750682451333678e-04  -1.3968801281101059e-04  -1.4162426393804291e-04  -1.4331475289974379e-04  -1.4475878083886786e-04  -1.4595577926604017e-04  -1.4690531438275650e-04  -1.4760709149767176e-04  -1.4806095953723245e-04  -1.4826691565163585e-04  -1.4822510991749618e-04  -1.4793585013838127e-04  -1.4739960674485679e-04  -1.4661701779530116e-04  -1.4558889407925802e-04  -1.4431622432475278e-04  -1.4280018051141251e-04  -1.4104212329090886e-04  -1.3904360751658984e-04  -1.3680638788403861e-04  -1.3433242468436336e-04  -1.3162388967207306e-04  -1.2868317204942358e-04  -1.2551288456914223e-04  -1.2211586975744280e-04  -1.1849520625941544e-04  -1.1465421530864171e-04  -1.1059646732320728e-04  -1.0632578863007259e-04  -1.0184626832004899e-04  -9.7162265235330731e-05  -9.2278415091903178e-05  -8.7199637738923265e-05  -8.1931144557405351e-05  -7.6478446000378375e-05  -7.0847359276835178e-05  -6.5044016181887247e-05  -5.9074871075384374e-05  -5.2946709011509216e-05  -4.6666654021682647e-05  -4.0242177553330300e-05  -3.3681107067002547e-05  -2.6991634794444541e-05  -2.0182326660120653e-05  -1.3262131368877535e-05  -6.2403896624614656e-06  8.7315625246938498e-07  8.0683531020084814e-06  1.5334626765692561e-05  2.2660972317213966e-05  3.0035943882292946e-05  3.7447644310825710e-05  4.4883714660334448e-05  5.2331323487717086e-05  5.9777155946038364e-05  6.7207402683618081e-05  7.4607748541809590e-05  8.1963361048566560e-05  8.9258878704422530e-05  9.6478399057495483e-05  1.0360546656429291e-04  1.1062306023277325e-04  1.1751358104424489e-04  1.2425883915055113e-04  1.3084004084303695e-04  1.3723777528961589e-04  1.4343200103636089e-04  1.4940203226985964e-04  1.5512652483674959e-04  1.6058346201664801e-04  1.6575014004483154e-04  1.7060315338103069e-04  1.7511837972085566e-04  1.7927096474629203e-04  1.8303530661233270e-04  1.8638504016669645e-04  1.8929302090034444e-04  1.9173130862716850e-04  1.9367115089208680e-04  1.9508296610830294e-04  1.9593632642641386e-04  1.9619994034090419e-04  1.9584163504366171e-04  1.9482833853989433e-04  1.9312606155049499e-04  1.9069987923697916e-04  1.8751391280389868e-04  1.8353131106032167e-04  1.7871423206392004e-04  1.7302382503367204e-04  1.6642021281605346e-04  1.5886247534365830e-04  1.5030863477340036e-04  1.4071564339542163e-04  1.3003937606951546e-04  1.1823463006087035e-04  1.0525513700703000e-04  9.1053594815501917e-05  7.5581731901585637e-05  5.8790421575550312e-05  4.0629863059637266e-05  2.1049797408332112e-05  -4.8798253370882898e-21  4.7215721597559357e-21  -1.3991264389449070e-05  -2.7647678068860454e-05  -4.0963574975260214e-05  -5.3933503487704477e-05  -6.6552191625831287e-05  -7.8814532923330907e-05  -9.0715577394413031e-05  -1.0225052081801921e-04  -1.1341469609499727e-04  -1.2420356754732790e-04  -1.3461272795521956e-04  -1.4463789779348640e-04  -1.5427492614073656e-04  -1.6351979283802301e-04  -1.7236861158157198e-04  -1.8081763372219758e-04  -1.8886325260993538e-04  -1.9650200836957780e-04  -2.0373059302639245e-04  -2.1054585592484323e-04  -2.1694480939972815e-04  -2.2292463467102293e-04  -2.2848268794197711e-04  -2.3361650668616131e-04  -2.3832381611335376e-04  -2.4260253580753660e-04  -2.4645078653238805e-04  -2.4986689720156419e-04  -2.5284941201227399e-04  -2.5539709774163871e-04  -2.5750895120611950e-04  -2.5918420688480169e-04  -2.6042234470778901e-04  -2.6122309801142871e-04  -2.6158646166216175e-04  -2.6151270035122454e-04  -2.6100235706241217e-04  -2.6005626171554636e-04  -2.5867553998802769e-04  -2.5686162231741612e-04  -2.5461625308766149e-04  -2.5194150000204676e-04  -2.4883976364571138e-04  -2.4531378724084737e-04  -2.4136666659770804e-04  -2.3700186026461538e-04  -2.3222319988016617e-04  -2.2703490073100176e-04  -2.2144157251848841e-04  -2.1544823033768900e-04  -2.0906030587221642e-04  -2.0228365880836608e-04  -1.9512458847222657e-04  -1.8758984569333236e-04  -1.7968664489867678e-04  -1.7142267644070668e-04  -1.6280611916322509e-04  -1.5384565320901490e-04  -1.4455047307318364e-04  -1.3493030090616249e-04  -1.2499540007039091e-04  -1.1475658895493178e-04  -1.0422525505204123e-04  -9.3413369300047216e-05  -8.2333500696774988e-05  -7.0998831187893104e-05  -5.9423170834645424e-05  -4.7620973265489233e-05  -3.5607351416139860e-05  -2.3398093562670600e-05  -1.1009679652479123e-05  1.5407020622229912e-06  1.4235138083438935e-05  2.7054972414164482e-05  3.9980788987737191e-05  5.2992393774734157e-05  6.6068796562266212e-05  7.9188192400458671e-05  9.2327942710813938e-05  1.0546455605086513e-04  1.1857366853002773e-04  1.3163002387065029e-04  1.4460745310890027e-04  1.5747885392969620e-04  1.7021616962976406e-04  1.8279036770306963e-04  1.9517141804256503e-04  2.0732827075219462e-04  2.1922883356301773e-04  2.3083994884733124e-04  2.4212737022444251e-04  2.5305573875186260e-04  2.6358855869551827e-04  2.7368817287276993e-04  2.8331573756181275e-04  2.9243119697133058e-04  3.0099325726426441e-04  3.0895936012988472e-04  3.1628565589853495e-04  3.2292697619416274e-04  3.2883680612016074e-04  3.3396725597514907e-04  3.3826903249690500e-04  3.4169140963414592e-04  3.4418219884904097e-04  3.4568771895674880e-04  3.4615276551380178e-04  3.4552057977448817e-04  3.4373281724492990e-04  3.4072951587976708e-04  3.3644906398759474e-04  3.3082816794298420e-04  3.2380181984802928e-04  3.1530326535412855e-04  3.0526397195431950e-04  2.9361359820776525e-04  2.8027996458633944e-04  2.6518902698420755e-04  2.4826485447234319e-04  2.2942961371361900e-04  2.0860356373145414e-04  1.8570506662297424e-04  1.6065062244735451e-04  1.3335493953274842e-04  1.0373105376007263e-04  7.1690505793293478e-05  3.7143628087815109e-05  -1.5246593050577490e-20  -5.1953511780895018e-21  -2.1595641446985943e-05  -4.2673974321115124e-05  -6.3226394271869379e-05  -8.3244600117246808e-05  -1.0272054580192440e-04  -1.2164641709795637e-04  -1.4001461742991659e-04  -1.5781775793134907e-04  -1.7504865007873406e-04  -1.9170030119423914e-04  -2.0776591266680360e-04  -2.2323888051567172e-04  -2.3811279785764829e-04  -2.5238145888105510e-04  -2.6603886400281213e-04  -2.7907922595871382e-04  -2.9149697663943466e-04  -3.0328677453354439e-04  -3.1444351267597364e-04  -3.2496232702776276e-04  -3.3483860523312182e-04  -3.4406799571472897e-04  -3.5264641707902678e-04  -3.6057006781128957e-04  -3.6783543624616241e-04  -3.7443931080384491e-04  -3.8037879048527523e-04  -3.8565129562228456e-04  -3.9025457888047370e-04  -3.9418673651412620e-04  -3.9744621987343866e-04  -4.0003184716535682e-04  -4.0194281546985855e-04  -4.0317871301424391e-04  -4.0373953170818070e-04  -4.0362567994289551e-04  -4.0283799565785707e-04  -4.0137775967894845e-04  -3.9924670933184626e-04  -3.9644705233503270e-04  -3.9298148097650134e-04  -3.8885318657883294e-04  -3.8406587425704437e-04  -3.7862377797399948e-04  -3.7253167589814247e-04  -3.6579490606848951e-04  -3.5841938237183728e-04  -3.5041161083730111e-04  -3.4177870625337332e-04  -3.3252840911274163e-04  -3.2266910289030184e-04  -3.1220983165972289e-04  -3.0116031805417173e-04  -2.8953098157675052e-04  -2.7733295726647456e-04  -2.6457811472544335e-04  -2.5127907751322005e-04  -2.3744924291428906e-04  -2.2310280208479494e-04  -2.0825476058458053e-04  -1.9292095930083450e-04  -1.7711809576975146e-04  -1.6086374590255353e-04  -1.4417638612250396e-04  -1.2707541591944961e-04  -1.0958118082871723e-04  -9.1714995841132629e-05  -7.3499169251205372e-05  -5.4957026950421443e-05  -3.6112937172773273e-05  -1.6992335699968826e-05  2.3782484665306121e-06  2.1971166958997544e-05  4.1757625414996023e-05  6.1707656359216636e-05  8.1790091587746245e-05  1.0197253404687480e-04  1.2222132919839743e-04  1.4250153586321549e-04  1.6277689653482316e-04  1.8300980715454135e-04  2.0316128633958940e-04  2.2319094405558250e-04  2.4305694972463247e-04  2.6271599975998948e-04  2.8212328451837404e-04  3.0123245466080203e-04  3.1999558691259611e-04  3.3836314921330604e-04  3.5628396524711405e-04  3.7370517834421581e-04  3.9057221474367721e-04  4.0682874620815183e-04  4.2241665198111770e-04  4.3727598007704664e-04  4.5134490789545777e-04  4.6455970214976869e-04  4.7685467810252538e-04  4.8816215809901169e-04  4.9841242939231191e-04  5.0753370125390294e-04  5.1545206136562082e-04  5.2209143149128121e-04  5.2737352242907085e-04  5.3121778825062336e-04  5.3354137983828019e-04  5.3425909774066033e-04  5.3328334437787827e-04  5.3052407564385153e-04  5.2588875197554169e-04  5.1928228899021460e-04  5.1060700783663883e-04  4.9976258546944208e-04  4.8664600514734140e-04  4.7115150758735399e-04  4.5317054339892945e-04  4.3259172770011844e-04  4.0930079822446675e-04  3.8318057881690933e-04  3.5411095105974472e-04  3.2196883794148546e-04  2.8662820501874870e-04  2.4796008630174058e-04  2.0583264386026873e-04  1.6011127081837879e-04  1.1065875481395010e-04  5.7335522162865402e-05  5.9367263828779348e-20  -1.1090160616100481e-21  -3.0660951554193806e-05  -6.0586852540913630e-05  -8.9765689703048341e-05  -1.1818581651434712e-04  -1.4583591214018489e-04  -1.7270495645137191e-04  -1.9878221540111670e-04  -2.2405723201115210e-04  -2.4851982112222457e-04  -2.7216006714769856e-04  -2.9496832453043903e-04  -3.1693522056879892e-04  -3.3805166025326766e-04  -3.5830883276978824e-04  -3.7769821937032322e-04  -3.9621160236497576e-04  -4.1384107504172823e-04  -4.3057905236391469e-04  -4.4641828233163953e-04  -4.6135185792149338e-04  -4.7537322954052847e-04  -4.8847621794718369e-04  -5.0065502760423164e-04  -5.1190426043845453e-04  -5.2221892998879579e-04  -5.3159447593046022e-04  -5.4002677896629640e-04  -5.4751217608030333e-04  -5.5404747615033509e-04  -5.5962997591916630e-04  -5.6425747632443332e-04  -5.6792829918926070e-04  -5.7064130427620665e-04  -5.7239590670806135e-04  -5.7319209475945152e-04  -5.7303044802391612e-