<?xml version="1.0"?>
<VTKFile type="UnstructuredGrid"  version="0.1"  >
<UnstructuredGrid>
<Piece  NumberOfPoints="16641" NumberOfCells="16384">
<Points>
<DataArray  type="Float64"  NumberOfComponents="3"  format="ascii">0 0 0  0.0078125 0 0  0.015625 0 0  0.0234375 0 0  0.03125 0 0  0.0390625 0 0  0.046875 0 0  0.0546875 0 0  0.0625 0 0  0.0703125 0 0  0.078125 0 0  0.0859375 0 0  0.09375 0 0  0.1015625 0 0  0.109375 0 0  0.1171875 0 0  0.125 0 0  0.1328125 0 0  0.140625 0 0  0.1484375 0 0  0.15625 0 0  0.1640625 0 0  0.171875 0 0  0.1796875 0 0  0.1875 0 0  0.1953125 0 0  0.203125 0 0  0.2109375 0 0  0.21875 0 0  0.2265625 0 0  0.234375 0 0  0.2421875 0 0  0.25 0 0  0.2578125 0 0  0.265625 0 0  0.2734375 0 0  0.28125 0 0  0.2890625 0 0  0.296875 0 0  0.3046875 0 0  0.3125 0 0  0.3203125 0 0  0.328125 0 0  0.3359375 0 0  0.34375 0 0  0.3515625 0 0  0.359375 0 0  0.3671875 0 0  0.375 0 0  0.3828125 0 0  0.390625 0 0  0.3984375 0 0  0.40625 0 0  0.4140625 0 0  0.421875 0 0  0.4296875 0 0  0.4375 0 0  0.4453125 0 0  0.453125 0 0  0.4609375 0 0  0.46875 0 0  0.4765625 0 0  0.484375 0 0  0.4921875 0 0  0.5 0 0  0.5078125 0 0  0.515625 0 0  0.5234375 0 0  0.53125 0 0  0.5390625 0 0  0.546875 0 0  0.5546875 0 0  0.5625 0 0  0.5703125 0 0  0.578125 0 0  0.5859375 0 0  0.59375 0 0  0.6015625 0 0  0.609375 0 0  0.6171875 0 0  0.625 0 0  0.6328125 0 0  0.640625 0 0  0.6484375 0 0  0.65625 0 0  0.6640625 0 0  0.671875 0 0  0.6796875 0 0  0.6875 0 0  0.6953125 0 0  0.703125 0 0  0.7109375 0 0  0.71875 0 0  0.7265625 0 0  0.734375 0 0  0.7421875 0 0  0.75 0 0  0.7578125 0 0  0.765625 0 0  0.7734375 0 0  0.78125 0 0  0.7890625 0 0  0.796875 0 0  0.8046875 0 0  0.8125 0 0  0.8203125 0 0  0.828125 0 0  0.8359375 0 0  0.84375 0 0  0.8515625 0 0  0.859375 0 0  0.8671875 0 0  0.875 0 0  0.8828125 0 0  0.890625 0 0  0.8984375 0 0  0.90625 0 0  0.9140625 0 0  0.921875 0 0  0.9296875 0 0  0.9375 0 0  0.9453125 0 0  0.953125 0 0  0.9609375 0 0  0.96875 0 0  0.9765625 0 0  0.984375 0 0  0.9921875 0 0  1 0 0  0 0.0078125 0  0.0078125 0.0078125 0  0.015625 0.0078125 0  0.0234375 0.0078125 0  0.03125 0.0078125 0  0.0390625 0.0078125 0  0.046875 0.0078125 0  0.0546875 0.0078125 0  0.0625 0.0078125 0  0.0703125 0.0078125 0  0.078125 0.0078125 0  0.0859375 0.0078125 0  0.09375 0.0078125 0  0.1015625 0.0078125 0  0.109375 0.0078125 0  0.1171875 0.0078125 0  0.125 0.0078125 0  0.1328125 0.0078125 0  0.140625 0.0078125 0  0.1484375 0.0078125 0  0.15625 0.0078125 0  0.1640625 0.0078125 0  0.171875 0.0078125 0  0.1796875 0.0078125 0  0.1875 0.0078125 0  0.1953125 0.0078125 0  0.203125 0.0078125 0  0.2109375 0.0078125 0  0.21875 0.0078125 0  0.2265625 0.0078125 0  0.234375 0.0078125 0  0.2421875 0.0078125 0  0.25 0.0078125 0  0.2578125 0.0078125 0  0.265625 0.0078125 0  0.2734375 0.0078125 0  0.28125 0.0078125 0  0.2890625 0.0078125 0  0.296875 0.0078125 0  0.3046875 0.0078125 0  0.3125 0.0078125 0  0.3203125 0.0078125 0  0.328125 0.0078125 0  0.3359375 0.0078125 0  0.34375 0.0078125 0  0.3515625 0.0078125 0  0.359375 0.0078125 0  0.3671875 0.0078125 0  0.375 0.0078125 0  0.3828125 0.0078125 0  0.390625 0.0078125 0  0.3984375 0.0078125 0  0.40625 0.0078125 0  0.4140625 0.0078125 0  0.421875 0.0078125 0  0.4296875 0.0078125 0  0.4375 0.0078125 0  0.4453125 0.0078125 0  0.453125 0.0078125 0  0.4609375 0.0078125 0  0.46875 0.0078125 0  0.4765625 0.0078125 0  0.484375 0.0078125 0  0.4921875 0.0078125 0  0.5 0.0078125 0  0.5078125 0.0078125 0  0.515625 0.0078125 0  0.5234375 0.0078125 0  0.53125 0.0078125 0  0.5390625 0.0078125 0  0.546875 0.0078125 0  0.5546875 0.0078125 0  0.5625 0.0078125 0  0.5703125 0.0078125 0  0.578125 0.0078125 0  0.5859375 0.0078125 0  0.59375 0.0078125 0  0.6015625 0.0078125 0  0.609375 0.0078125 0  0.6171875 0.0078125 0  0.625 0.0078125 0  0.6328125 0.0078125 0  0.640625 0.0078125 0  0.6484375 0.0078125 0  0.65625 0.0078125 0  0.6640625 0.0078125 0  0.671875 0.0078125 0  0.6796875 0.0078125 0  0.6875 0.0078125 0  0.6953125 0.0078125 0  0.703125 0.0078125 0  0.7109375 0.0078125 0  0.71875 0.0078125 0  0.7265625 0.0078125 0  0.734375 0.0078125 0  0.7421875 0.0078125 0  0.75 0.0078125 0  0.7578125 0.0078125 0  0.765625 0.0078125 0  0.7734375 0.0078125 0  0.78125 0.0078125 0  0.7890625 0.0078125 0  0.796875 0.0078125 0  0.8046875 0.0078125 0  0.8125 0.0078125 0  0.8203125 0.0078125 0  0.828125 0.0078125 0  0.8359375 0.0078125 0  0.84375 0.0078125 0  0.8515625 0.0078125 0  0.859375 0.0078125 0  0.8671875 0.0078125 0  0.875 0.0078125 0  0.8828125 0.0078125 0  0.890625 0.0078125 0  0.8984375 0.0078125 0  0.90625 0.0078125 0  0.9140625 0.0078125 0  0.921875 0.0078125 0  0.9296875 0.0078125 0  0.9375 0.0078125 0  0.9453125 0.0078125 0  0.953125 0.0078125 0  0.9609375 0.0078125 0  0.96875 0.0078125 0  0.9765625 0.0078125 0  0.984375 0.0078125 0  0.9921875 0.0078125 0  1 0.0078125 0  0 0.015625 0  0.0078125 0.015625 0  0.015625 0.015625 0  0.0234375 0.015625 0  0.03125 0.015625 0  0.0390625 0.015625 0  0.046875 0.015625 0  0.0546875 0.015625 0  0.0625 0.015625 0  0.0703125 0.015625 0  0.078125 0.015625 0  0.0859375 0.015625 0  0.09375 0.015625 0  0.1015625 0.015625 0  0.109375 0.015625 0  0.1171875 0.015625 0  0.125 0.015625 0  0.1328125 0.015625 0  0.140625 0.015625 0  0.1484375 0.015625 0  0.15625 0.015625 0  0.1640625 0.015625 0  0.171875 0.015625 0  0.1796875 0.015625 0  0.1875 0.015625 0  0.1953125 0.015625 0  0.203125 0.015625 0  0.2109375 0.015625 0  0.21875 0.015625 0  0.2265625 0.015625 0  0.234375 0.015625 0  0.2421875 0.015625 0  0.25 0.015625 0  0.2578125 0.015625 0  0.265625 0.015625 0  0.2734375 0.015625 0  0.28125 0.015625 0  0.2890625 0.015625 0  0.296875 0.015625 0  0.3046875 0.015625 0  0.3125 0.015625 0  0.3203125 0.015625 0  0.328125 0.015625 0  0.3359375 0.015625 0  0.34375 0.015625 0  0.3515625 0.015625 0  0.359375 0.015625 0  0.3671875 0.015625 0  0.375 0.015625 0  0.3828125 0.015625 0  0.390625 0.015625 0  0.3984375 0.015625 0  0.40625 0.015625 0  0.4140625 0.015625 0  0.421875 0.015625 0  0.4296875 0.015625 0  0.4375 0.015625 0  0.4453125 0.015625 0  0.453125 0.015625 0  0.4609375 0.015625 0  0.46875 0.015625 0  0.4765625 0.015625 0  0.484375 0.015625 0  0.4921875 0.015625 0  0.5 0.015625 0  0.5078125 0.015625 0  0.515625 0.015625 0  0.5234375 0.015625 0  0.53125 0.015625 0  0.5390625 0.015625 0  0.546875 0.015625 0  0.5546875 0.015625 0  0.5625 0.015625 0  0.5703125 0.015625 0  0.578125 0.015625 0  0.5859375 0.015625 0  0.59375 0.015625 0  0.6015625 0.015625 0  0.609375 0.015625 0  0.6171875 0.015625 0  0.625 0.015625 0  0.6328125 0.015625 0  0.640625 0.015625 0  0.6484375 0.015625 0  0.65625 0.015625 0  0.6640625 0.015625 0  0.671875 0.015625 0  0.6796875 0.015625 0  0.6875 0.015625 0  0.6953125 0.015625 0  0.703125 0.015625 0  0.7109375 0.015625 0  0.71875 0.015625 0  0.7265625 0.015625 0  0.734375 0.015625 0  0.7421875 0.015625 0  0.75 0.015625 0  0.7578125 0.015625 0  0.765625 0.015625 0  0.7734375 0.015625 0  0.78125 0.015625 0  0.7890625 0.015625 0  0.796875 0.015625 0  0.8046875 0.015625 0  0.8125 0.015625 0  0.8203125 0.015625 0  0.828125 0.015625 0  0.8359375 0.015625 0  0.84375 0.015625 0  0.8515625 0.015625 0  0.859375 0.015625 0  0.8671875 0.015625 0  0.875 0.015625 0  0.8828125 0.015625 0  0.890625 0.015625 0  0.8984375 0.015625 0  0.90625 0.015625 0  0.9140625 0.015625 0  0.921875 0.015625 0  0.9296875 0.015625 0  0.9375 0.015625 0  0.9453125 0.015625 0  0.953125 0.015625 0  0.9609375 0.015625 0  0.96875 0.015625 0  0.9765625 0.015625 0  0.984375 0.015625 0  0.9921875 0.015625 0  1 0.015625 0  0 0.0234375 0  0.0078125 0.0234375 0  0.015625 0.0234375 0  0.0234375 0.0234375 0  0.03125 0.0234375 0  0.0390625 0.0234375 0  0.046875 0.0234375 0  0.0546875 0.0234375 0  0.0625 0.0234375 0  0.0703125 0.0234375 0  0.078125 0.0234375 0  0.0859375 0.0234375 0  0.09375 0.0234375 0  0.1015625 0.0234375 0  0.109375 0.0234375 0  0.1171875 0.0234375 0  0.125 0.0234375 0  0.1328125 0.0234375 0  0.140625 0.0234375 0  0.1484375 0.0234375 0  0.15625 0.0234375 0  0.1640625 0.0234375 0  0.171875 0.0234375 0  0.1796875 0.0234375 0  0.1875 0.0234375 0  0.1953125 0.0234375 0  0.203125 0.0234375 0  0.2109375 0.0234375 0  0.21875 0.0234375 0  0.2265625 0.0234375 0  0.234375 0.0234375 0  0.2421875 0.0234375 0  0.25 0.0234375 0  0.2578125 0.0234375 0  0.265625 0.0234375 0  0.2734375 0.0234375 0  0.28125 0.0234375 0  0.2890625 0.0234375 0  0.296875 0.0234375 0  0.3046875 0.0234375 0  0.3125 0.0234375 0  0.3203125 0.0234375 0  0.328125 0.0234375 0  0.3359375 0.0234375 0  0.34375 0.0234375 0  0.3515625 0.0234375 0  0.359375 0.0234375 0  0.3671875 0.0234375 0  0.375 0.0234375 0  0.3828125 0.0234375 0  0.390625 0.0234375 0  0.3984375 0.0234375 0  0.40625 0.0234375 0  0.4140625 0.0234375 0  0.421875 0.0234375 0  0.4296875 0.0234375 0  0.4375 0.0234375 0  0.4453125 0.0234375 0  0.453125 0.0234375 0  0.4609375 0.0234375 0  0.46875 0.0234375 0  0.4765625 0.0234375 0  0.484375 0.0234375 0  0.4921875 0.0234375 0  0.5 0.0234375 0  0.5078125 0.0234375 0  0.515625 0.0234375 0  0.5234375 0.0234375 0  0.53125 0.0234375 0  0.5390625 0.0234375 0  0.546875 0.0234375 0  0.5546875 0.0234375 0  0.5625 0.0234375 0  0.5703125 0.0234375 0  0.578125 0.0234375 0  0.5859375 0.0234375 0  0.59375 0.0234375 0  0.6015625 0.0234375 0  0.609375 0.0234375 0  0.6171875 0.0234375 0  0.625 0.0234375 0  0.6328125 0.0234375 0  0.640625 0.0234375 0  0.6484375 0.0234375 0  0.65625 0.0234375 0  0.6640625 0.0234375 0  0.671875 0.0234375 0  0.6796875 0.0234375 0  0.6875 0.0234375 0  0.6953125 0.0234375 0  0.703125 0.0234375 0  0.7109375 0.0234375 0  0.71875 0.0234375 0  0.7265625 0.0234375 0  0.734375 0.0234375 0  0.7421875 0.0234375 0  0.75 0.0234375 0  0.7578125 0.0234375 0  0.765625 0.0234375 0  0.7734375 0.0234375 0  0.78125 0.0234375 0  0.7890625 0.0234375 0  0.796875 0.0234375 0  0.8046875 0.0234375 0  0.8125 0.0234375 0  0.8203125 0.0234375 0  0.828125 0.0234375 0  0.8359375 0.0234375 0  0.84375 0.0234375 0  0.8515625 0.0234375 0  0.859375 0.0234375 0  0.8671
[...]
<PointData  Scalars="v_sol"> 
<DataArray  type="Float64"  Name="v_sol"  format="ascii">-1.1417024074763757e-06  3.1550590294085867e-06  1.3452144162615442e-05  2.4937572694223704e-05  3.4639979455127021e-05  4.1676994717203760e-05  4.5794505828925277e-05  4.7070411735782548e-05  4.5794144373026672e-05  4.2418640850408452e-05  3.7505243467922283e-05  3.1664130582354798e-05  2.5494100861700736e-05  1.9529822670359768e-05  1.4201737331596940e-05  9.8109807698544392e-06  6.5189950754304679e-06  4.3499474199537098e-06  3.2035697019304231e-06  2.8763124322415383e-06  3.0890689919571202e-06  3.5196930450334633e-06  3.8377877660084735e-06  3.7380516678004948e-06  2.9675326077444587e-06  1.3421952299422718e-06  -1.2501601315529707e-06  -4.8606067291620093e-06  -9.4999556036008086e-06  -1.5163603498563066e-05  -2.1853455693188291e-05  -2.9591449901707243e-05  -3.8422367354976387e-05  -4.8407076909973987e-05  -5.9609852311016853e-05  -7.2084061310150827e-05  -8.5859536439631708e-05  -1.0093308380564334e-04  -1.1726200149575007e-04  -1.3475968672337055e-04  -1.5329255766946922e-04  -1.7267802849280155e-04  -1.9268381552636977e-04  -2.1302902122838827e-04  -2.3338740723964708e-04  -2.5339296902730340e-04  -2.7264773571780324e-04  -2.9073143264063053e-04  -3.0721250656976602e-04  -3.2165985702501120e-04  -3.3365463138188087e-04  -3.4280132969963299e-04  -3.4873775700296325e-04  -3.5114324267543085e-04  -3.4974501290280154e-04  -3.4432260093816499e-04  -3.3471043276596141e-04  -3.2079893658233107e-04  -3.0253456948902676e-04  -2.7991923429618077e-04  -2.5300958306340431e-04  -2.2191660197817893e-04  -1.8680589139115556e-04  -1.4789874846694840e-04  -1.0547421123242611e-04  -5.9871944656661661e-05  -1.1495643236633241e-05  3.9183355357480550e-05  9.1622931988003019e-05  1.4520808467633362e-04  1.9925079230064427e-04  2.5299237746967987e-04  3.0560953329344958e-04  3.5622421532230229e-04  4.0391839241421692e-04  4.4775351659280478e-04  4.8679490013117937e-04  5.2014042400066226e-04  5.4695275170336141e-04  5.6649368494002435e-04  5.7815905964782863e-04  5.8151194037795611e-04  5.7631209938717367e-04  5.6253924263153761e-04  5.4040802974609538e-04  5.1037297872147511e-04  4.7312212222979803e-04  4.2955897770362436e-04  3.8077324132123550e-04  3.2800161095989050e-04  2.7258084378105037e-04  2.1589588446898448e-04  1.5932617271200764e-04  1.0419330275383059e-04  5.1712924880720399e-05  2.9532705375646643e-06  -4.1197957500831855e-05  -8.0057160739029626e-05  -1.1315841901114017e-04  -1.4025686165023422e-04  -1.6132218439489894e-04  -1.7652286991730724e-04  -1.8620217344795121e-04  -1.9084730334785742e-04  -1.9105372985336281e-04  -1.8748703085785356e-04  -1.8084483626687434e-04  -1.7182146585472232e-04  -1.6107752131165444e-04  -1.4921607540008635e-04  -1.3676637971492804e-04  -1.2417518038535395e-04  -1.1180495255721604e-04  -9.9937615799348188e-05  -8.8781661630963276e-05  -7.8480133040183519e-05  -6.9116770386671794e-05  -6.0718049112572560e-05  -5.3249964415113149e-05  -4.6610247396734340e-05  -4.0619086025477952e-05  -3.5014250916275198e-05  -2.9460060321282433e-05  -2.3585626195834367e-05  -1.7080225545619103e-05  -9.9077009920155416e-06  -2.7856959489966333e-06  1.9940607366153114e-06  1.3865933826545347e-06  1.0831018784109962e-05  -5.1608832928433483e-06  -6.5271093657728958e-05  -1.2766279231003847e-04  -1.7911796334691652e-04  -2.1593710708301558e-04  -2.3725240806868000e-04  -2.4360036377771172e-04  -2.3657564080740092e-04  -2.1860734968836524e-04  -1.9268877923080873e-04  -1.6205886262238067e-04  -1.2988075154550261e-04  -9.8962210886314696e-05  -7.1547376372567618e-05  -4.9190890628015844e-05  -3.2710522006553492e-05  -2.2206076911492180e-05  -1.7130692378440121e-05  -1.6403133798534798e-05  -1.8552776964779865e-05  -2.1889274838512002e-05  -2.4684902488809887e-05  -2.5350576194180706e-05  -2.2580545777207303e-05  -1.5440358288721972e-05  -3.3811428033182316e-06  1.3820334104954921e-05  3.6177025963024038e-05  6.3628447601636617e-05  9.6160775307440401e-05  1.3388019307598780e-04  1.7702713520918701e-04  2.2593851225161240e-04  2.8097863306951904e-04  3.4246282499260437e-04  4.1059163117825883e-04  4.8540287317325848e-04  5.6673983036704110e-04  6.5422977016120541e-04  7.4726811725237658e-04  8.4500678914491330e-04  9.4634827341643398e-04  1.0499480310634489e-03  1.1542274679301899e-03  1.2573983354622930e-03  1.3574982201734877e-03  1.4524355644979405e-03  1.5400418666301954e-03  1.6181280281505502e-03  1.6845416473784671e-03  1.7372218969838491e-03  1.7742492100935848e-03  1.7938874143286750e-03  1.7946172041541498e-03  1.7751604574836480e-03  1.7344959495416176e-03  1.6718679442193443e-03  1.5867897234001025e-03  1.4790443392453619e-03  1.3486851246461162e-03  1.1960380906871849e-03  1.0217085096292831e-03  8.2659252630024884e-04  6.1189494204796739e-04  3.7915242751515468e-04  1.3026133593652307e-04  -1.3249212314467255e-04  -4.0640256884364611e-04  -6.8832097782679932e-04  -9.7463985795839380e-04  -1.2612936932741639e-03  -1.5437800856910983e-03  -1.8172072920721470e-03  -2.0763726589598445e-03  -2.3158751842939987e-03  -2.5302629143275929e-03  -2.7142132539965664e-03  -2.8627406392768466e-03  -2.9714220968169720e-03  -3.0366280055468728e-03  -3.0557419625039848e-03  -3.0273526312853045e-03  -2.9513995486516653e-03  -2.8292577295844700e-03  -2.6637491826401972e-03  -2.4590755437333051e-03  -2.2206727784933387e-03  -1.9549958678048854e-03  -1.6692480271746346e-03  -1.3710734233674559e-03  -1.0682350781081337e-03  -7.6829943569532298e-04  -4.7834667770656604e-04  -2.0472179685520649e-04  4.7163553606886498e-05  2.7297334674532031e-04  4.6953244594100400e-04  6.3485691620686336e-04  7.6813273550493315e-04  8.6964771261656686e-04  9.4068174415889614e-04  9.8336195165091918e-04  1.0004903989447522e-03  9.9535402357592262e-04  9.7152821313061031e-04  9.3268604251521287e-04  8.8242513283419302e-04  8.2412218148724228e-04  7.6082236564146576e-04  6.9516716724170302e-04  6.2936033036182636e-04  5.6516796546153298e-04  5.0394530784099109e-04  4.4667946791212448e-04  3.9403494574067298e-04  3.4638781679946907e-04  3.0383639712167261e-04  2.6618193886615105e-04  2.3288238356586924e-04  2.0299457138788613e-04  1.7513457337416512e-04  1.4750323063752064e-04  1.1805200669699580e-04  8.4924534299712969e-05  4.7477766379146877e-05  8.6917708852305705e-06  -1.8403997951595431e-05  -6.1887206598229952e-06  2.1156373743741283e-05  -1.0063318882559067e-04  -3.2377167889983385e-04  -5.5601844650986503e-04  -7.5210461342257486e-04  -8.9461860135694711e-04  -9.7786182979962334e-04  -1.0027381596512972e-03  -9.7483409701529591e-04  -9.0322738712165769e-04  -7.9930621192367789e-04  -6.7551132187068869e-04  -5.4410072185990079e-04  -4.1606793331097099e-04  -3.0031077257934623e-04  -2.0309546439876774e-04  -1.2781431870888959e-04  -7.5006118568603835e-05  -4.2598040025543123e-05  -2.6330208231951203e-05  -2.0327957539849833e-05  -1.7782209221680779e-05  -1.1681315617682480e-05  4.4867992733908703e-06  3.6161509406538214e-05  8.7360570599102978e-05  1.6061487471040603e-04  2.5718314707721057e-04  3.7747117569573302e-04  5.2152637443161941e-04  6.8946493878548575e-04  8.8172168476532238e-04  1.0990788141709603e-03  1.3425017085023775e-03  1.6128593416067148e-03  1.9106186472847998e-03  2.2355800053981997e-03  2.5866836282887203e-03  2.9618850760228153e-03  3.3580843396938342e-03  3.7710957507806190e-03  4.1956560258904832e-03  4.6254754712598883e-03  5.0533387782710337e-03  5.4712578548681313e-03  5.8706727935430260e-03  6.2426914973283979e-03  6.5783533496060285e-03  6.8689005168428036e-03  7.1060394022583063e-03  7.2821760115077136e-03  7.3906125677769960e-03  7.4256960616674401e-03  7.3829151740725813e-03  7.2589466457049119e-03  7.0516567364589727e-03  6.7600660916831623e-03  6.3842897580299639e-03  5.9254636025442217e-03  5.3856691805479152e-03  4.7678667081901159e-03  4.0758442852945418e-03  3.3141892465155909e-03  2.4882840607722183e-03  1.6043271029347417e-03  6.6937531833407009e-04  -3.0859678531364800e-04  -1.3206288386112220e-03  -2.3567083379016449e-03  -3.4057170331315508e-03  -4.4554043393875515e-03  -5.4924016639812459e-03  -6.5022918047087366e-03  -7.4697472166539445e-03  -8.3787477775663904e-03  -9.2128856970000745e-03  -9.9557586885562956e-03  -1.0591447284808006e-02  -1.1105062463925517e-02  -1.1483342317469846e-02  -1.1715267131232811e-02  -1.1792655996998200e-02  -1.1710702957787714e-02  -1.1468409530863600e-02  -1.1068874122117720e-02  -1.0519406404543781e-02  -9.8314462635297820e-03  -9.0202825515247297e-03  -8.1045823362672683e-03  -7.1057572459365254e-03  -6.0472055139373510e-03  -4.9534764093829651e-03  -3.8494058967609122e-03  -2.7592693741923546e-03  -1.7059900483920366e-03  -7.1043196329101117e-04  2.0920279018936096e-04  1.0378604207188678e-03  1.7639973840066828e-03  2.3798105016821698e-03  2.8813271375469603e-03  3.2683466485266257e-03  3.5442270040778484e-03  3.7155174286321912e-03  3.7914497977899575e-03  3.7833164256471986e-03  3.7037758807526998e-03  3.5661389056024532e-03  3.3836897800985032e-03  3.1690938285430827e-03  2.9339299222843201e-03  2.6883699352104329e-03  2.4410076007750606e-03  2.1988192572094923e-03  1.9672205301676567e-03  1.7501687646322413e-03  1.5502550404252228e-03  1.3687363032778568e-03  1.2054807028968925e-03  1.0588372691640380e-03  9.2549082653905481e-04  8.0042039522187794e-04  6.7714699998271208e-04  5.4855449146055837e-04  4.0875221973884465e-04  2.5685051341178545e-04  1.0444924434786013e-04  -1.0242451001628878e-05  -1.8155434745681334e-05  2.1448130350633325e-05  -3.2070225640944719e-04  -7.7357937749189553e-04  -1.2267479705046641e-03  -1.6098937806539541e-03  -1.8890393566537980e-03  -2.0510803109714463e-03  -2.0964793144566045e-03  -2.0355857685616630e-03  -1.8860008096054464e-03  -1.6700661794686589e-03  -1.4123154337365568e-03  -1.1370281097089591e-03  -8.6609035826594645e-04  -6.1732345360435213e-04  -4.0336369552003627e-04  -2.3110403973918199e-04  -1.0165875668656934e-04  -1.0790682931781938e-05  5.0263697401212791e-05  9.3640154806017890e-05  1.3345218209063800e-04  1.8428456799205500e-04  2.5975197273897592e-04  3.7132945881056050e-04  5.2764448535000483e-04  7.3433974064468857e-04  9.9448529588646250e-04  1.3093767167401697e-03  1.6794556025107820e-03  2.1050721249009927e-03  2.5868839043653919e-03  3.1258214917388076e-03  3.7226912422393147e-03  4.3775772246190002e-03  5.0892191662886962e-03  5.8544958957086760e-03  6.6680721133301219e-03  7.5222100374372613e-03  8.4067242300358766e-03  9.3090626935354946e-03  1.0214509657299970e-02  1.1106511999085666e-02  1.1967125290629561e-02  1.2777562705335295e-02  1.3518816138478404e-02  1.4172307938395277e-02  1.4720527854703635e-02  1.5147609977135575e-02  1.5439812218804968e-02  1.5585870851444633e-02  1.5577216373794125e-02  1.5408050413647508e-02  1.5075296131648158e-02  1.4578444156155132e-02  1.3919321983799370e-02  1.3101817673321926e-02  1.2131587645236516e-02  1.1015775181982069e-02  9.7627612267823585e-03  8.3819629948588461e-03  6.8836902735492089e-03  5.2790632908302423e-03  3.5799916393626481e-03  1.7992081882670775e-03  -4.9650309987391388e-05  -1.9519287625919071e-03  -3.8918194991453894e-03  -5.8522259620315742e-03  -7.8146436400170060e-03  -9.7590779408506401e-03  -1.1664022005041023e-02  -1.3506514456463548e-02  -1.5262299596671379e-02  -1.6906105167321831e-02  -1.8412052508428083e-02  -1.9754202655829389e-02  -2.0907235105838355e-02  -2.1847243267495191e-02  -2.2552617437089386e-02  -2.3004974254056079e-02  -2.3190079265170326e-02  -2.3098701917317471e-02  -2.2727337859158491e-02  -2.2078738597839848e-02  -2.1162197188877400e-02  -1.9993556116874880e-02  -1.8594924803607939e-02  -1.6994118163801791e-02  -1.5223849896029221e-02  -1.3320732578801064e-02  -1.1324146978689479e-02  -9.2750455990130865e-03  -7.2147484291343218e-03  -5.1837762485246212e-03  -3.2207506195046074e-03  -1.3613750111205075e-03  3.6249760934277490e-04  1.9237061691937691e-03  3.3005191516784563e-03  4.4772406894971707e-03  5.4446409072814563e-03  6.2001548275981266e-03  6.7477946569764712e-03  7.0977365662846202e-03  7.2655748939617452e-03  7.2712784035934442e-03  7.1379259602431713e-03  6.8903319962076263e-03  6.5536880020774495e-03  6.1523402991335704e-03  5.7087991052441282e-03  5.2430330056638412e-03  4.7720544501419744e-03  4.3097526103623813e-03  3.8668890671642911e-03  3.4511493515198043e-03  3.0671492092484427e-03  2.7163350630319051e-03  2.3967922438796366e-03  2.1030733776320211e-03  1.8262712071868401e-03  1.5546818438372776e-03  1.2755537175490658e-03  9.7864341466054024e-04  6.6268099727443764e-04  3.4635229884472611e-04  8.5708990565743458e-05  -2.4456901283484854e-05  1.7051474411537459e-05  -6.5195834874237993e-04  -1.3989081955009192e-03  -2.1105381939039896e-03  -2.7034480706244492e-03  -3.1309358318976931e-03  -3.3732188512092258e-03  -3.4307845616754354e-03  -3.3196807916478261e-03  -3.0674371204134727e-03  -2.7090129741660302e-03  -2.2827438662667561e-03  -1.8265153505549357e-03  -1.3744414212821527e-03  -9.5425949336613196e-04  -5.8555350827758370e-04  -2.7882582268186058e-04  -3.5378628608939077e-05  1.5206260446562421e-04  2.9806359537974686e-04  4.2263370768959204e-04  5.4896384947830819e-04  7.0097357345565430e-04  9.0097232128844582e-04  1.1677810469126408e-03  1.5156168655950037e-03  1.9538961572492554e-03  2.4878887461714408e-03  3.1199290307152910e-03  3.8507465237563022e-03  4.6804794047215761e-03  5.6090817635316851e-03  6.6360659011563067e-03  7.7597383246961298e-03  8.9762100917689398e-03  1.0278461424749735e-02  1.1655651631283450e-02  1.3092753874110569e-02  1.4570515633480961e-02  1.6065715117143012e-02  1.7551684761755861e-02  1.8999076423061988e-02  2.0376834916782591e-02  2.1653325910534104e-02  2.2797542552425727e-02  2.3780300275434405e-02  2.4575327076759277e-02  2.5160167641539301e-02  2.5516840878008876e-02  2.5632218432113427e-02  2.5498121701400991e-02  2.5111161248814035e-02  2.4472363792609607e-02  2.3586645400630043e-02  2.2462192950019836e-02  2.1109814312143316e-02  1.9542309556303327e-02  1.7773904629918708e-02  1.5819776532725677e-02  1.3695688031316777e-02  1.1417738852302614e-02  9.0022323837527091e-03  6.4656513110567101e-03  3.8247294306122371e-03  1.0966053693358736e-03  -1.7009600061957796e-03  -4.5493211998121072e-03  -7.4286620362381565e-03  -1.0317709134546249e-02  -1.3193469552226306e-02  -1.6031019815945111e-02  -1.8803374020730585e-02  -2.1481461448786113e-02  -2.4034241995506612e-02  -2.6428985347052906e-02  -2.8631735573307872e-02  -3.0607972286629006e-02  -3.2323468678354263e-02  -3.3745329844046545e-02  -3.4843176986264782e-02  -3.5590422911783479e-02  -3.5965567343514124e-02  -3.5953425409475603e-02  -3.5546195755613227e-02  -3.4744278336373037e-02  -3.3556764746884918e-02  -3.2001548124057103e-02  -3.0105033386615743e-02  -2.7901464587624800e-02  -2.5431923422994395e-02  -2.2743080016890866e-02  -1.9885794956352648e-02  -1.6913671195189564e-02  -1.3881639970784820e-02  -1.0844637068600518e-02  -7.8563907725649838e-03  -4.9683092551128585e-03  -2.2284305541670855e-03  3.1961020027062318e-04  2.6376293174241354e-03  4.6939601877355654e-03  6.4644917249610072e-03  7.9335872921769499e-03  9.0947553607924527e-03  9.9509319083199519e-03  1.0514257545974430e-02  1.0805288587463992e-02  1.0851661537694320e-02  1.0686315706617952e-02  1.0345449105726059e-02  9.8664205150838184e-03  9.2858076651359395e-03  8.6377882942382210e-03  7.9529375088250708e-03  7.2574465401586147e-03  6.5726838476914918e-03  5.9149614236837971e-03  5.2953567033349400e-03  4.7194868249333007e-03  4.1872361707925628e-03  3.6925842310223918e-03  3.2238441706181403e-03  2.7647828944825951e-03  2.2972491683423608e-03  1.8061049441302377e-03  1.2874436193937211e-03  7.6120583495768994e-04  2.8954791460454940e-04  -2.5402524837424932e-05  1.0041342275201970e-05  -1.0743680202276228e-03  -2.1743045477116041e-03  -3.1766728776482602e-03  -3.9928504288140945e-03  -4.5687786286990675e-03  -4.8811067834037382e-03  -4.9324735984839444e-03  -4.7465028882693163e-03  -4.3624339915331982e-03  -3.8294412846088398e-03  -3.2009409540050509e-03  -2.5292920921090511e-03  -1.8612586350560028e-03  -1.2344798232205476e-03  -6.7506612552226315e-04  -1.9633664996898892e-04  2.0134286084125738e-04  5.2968578232934118e-04  8.1065516716980097e-04  1.0738029291314591e-03  1.3529915791425581e-03  1.6828423634874061e-03  2.0953783715091799e-03  2.6173794419947090e-03  3.2688735620089058e-03  4.0629419510639165e-03  5.0066716527554060e-03  6.1027712412586787e-03  7.3512023045484700e-03  8.7502444586678770e-03  1.0296677321535623e-02  1.1985110923027301e-02  1.3806779349302439e-02  1.5748230092669589e-02  1.7790288061907626e-02  1.9907521694085797e-02  2.2068284564587821e-02  2.4235307673682618e-02  2.6366774103435114e-02  2.8417792894553637e-02  3.0342167634085919e-02  3.2094330671053842e-02  3.3631287063011807e-02  3.4914405671927384e-02  3.5910907764787101e-02  3.6594940413778448e-02  3.6948171791446639e-02  3.6959901528540701e-02  3.6626729637112651e-02  3.5951866610397870e-02  3.4944189330879144e-02  3.3617154575820360e-02  3.1987674697511334e-02  3.0075043009063079e-02  2.7899974216348693e-02  2.5483803456319971e-02  2.2847866192775755e-02  2.0013064505149718e-02  1.6999613322524271e-02  1.3826951139251590e-02  1.0513795846578142e-02  7.0783241028936610e-03  3.5384519715713544e-03  -8.7804858273998057e-05  -3.7819127921540790e-03  -7.5243653382314080e-03  -1.1294213208132757e-02  -1.5068604676290497e-02  -1.8822361372881940e-02  -2.2527620624115282e-02  -2.6153576442605211e-02  -2.9666355547637809e-02  -3.3029066381018310e-02  -3.6202056454040933e-02  -3.9143411588515649e-02  -4.1809718516154004e-02  -4.4157101526865777e-02  -4.6142520575918562e-02  -4.7725296791583730e-02  -4.8868800558116224e-02  -4.9542211989704717e-02  -4.9722237221839306e-02  -4.9394648381349965e-02  -4.8555512756746945e-02  -4.7211989028161754e-02  -4.5382599883871458e-02  -4.3096937102683523e-02  -4.0394812646172833e-02  -3.7324929400796701e-02  -3.3943197301665319e-02  -3.0310855306926125e-02  -2.6492570219924742e-02  -2.2554664596788728e-02  -1.8563582600336890e-02  -1.4584639827325767e-02  -1.0681034701151134e-02  -6.9130372191417069e-03  -3.3372306268640121e-03  -5.6734082095680425e-06  3.0351218911671037e-03  5.7454322920427363e-03  8.0937412811866085e-03  1.0058186550531787e-02  1.1627821447041057e-02  1.2803440569659187e-02  1.3597744136404825e-02  1.4034698048418398e-02  1.4148070775922027e-02  1.3979265823246460e-02  1.3574685115515090e-02  1.2982925420831876e-02  1.2252111039227576e-02  1.1427602582645096e-02  1.0550210916557638e-02  9.6549166106223907e-03  8.7699856180460650e-03  7.9163177586376917e-03  7.1068917212625772e-03  6.3462832875294346e-03  5.6304105815688579e-03  4.9468602761589221e-03  4.2763280171389971e-03  3.5958362662715316e-03  2.8844656122784663e-03  2.1323433859135976e-03  1.3536025872305773e-03  6.0376107404312533e-04  -2.1576082279306989e-05  1.7334600359160305e-06  -1.5706866193547992e-03  -3.0756124212488979e-03  -4.3971031558548979e-03  -5.4446828534948782e-03  -6.1613930900239677e-03  -6.5243224552149108e-03  -6.5417108942090853e-03  -6.2477735096417887e-03  -5.6960238841922322e-03  -4.9518341928714840e-03  -4.0849760586156320e-03  -3.1627951298875945e-03  -2.2444893390362350e-03  -1.3767514868213821e-03  -5.9086492188800937e-04  9.8761538346317745e-05  6.9467031405086766e-04  1.2150970752345131e-03  1.6914472687325980e-03  2.1646499518619385e-03  2.6806837918350920e-03  3.2857739308033785e-03  4.0219341043596490e-03  4.9235671679925055e-03  6.0156570564435319e-03  7.3136916300388394e-03  8.8249669280205858e-03  1.0550531145401228e-02  1.2486903790246589e-02  1.4626909446089648e-02  1.6959399808004400e-02  1.9468101507698184e-02  2.2130125559402962e-02  2.4914721194745294e-02  2.7782700898691205e-02  3.0686732047485732e-02  3.3572494032469952e-02  3.6380580798497784e-02  3.9048964153850792e-02  4.1515795024272578e-02  