<?xml version="1.0"?>
<VTKFile type="UnstructuredGrid"  version="0.1"  >
<UnstructuredGrid>
<Piece  NumberOfPoints="16641" NumberOfCells="16384">
<Points>
<DataArray  type="Float64"  NumberOfComponents="3"  format="ascii">0 0 0  0.0078125 0 0  0.015625 0 0  0.0234375 0 0  0.03125 0 0  0.0390625 0 0  0.046875 0 0  0.0546875 0 0  0.0625 0 0  0.0703125 0 0  0.078125 0 0  0.0859375 0 0  0.09375 0 0  0.1015625 0 0  0.109375 0 0  0.1171875 0 0  0.125 0 0  0.1328125 0 0  0.140625 0 0  0.1484375 0 0  0.15625 0 0  0.1640625 0 0  0.171875 0 0  0.1796875 0 0  0.1875 0 0  0.1953125 0 0  0.203125 0 0  0.2109375 0 0  0.21875 0 0  0.2265625 0 0  0.234375 0 0  0.2421875 0 0  0.25 0 0  0.2578125 0 0  0.265625 0 0  0.2734375 0 0  0.28125 0 0  0.2890625 0 0  0.296875 0 0  0.3046875 0 0  0.3125 0 0  0.3203125 0 0  0.328125 0 0  0.3359375 0 0  0.34375 0 0  0.3515625 0 0  0.359375 0 0  0.3671875 0 0  0.375 0 0  0.3828125 0 0  0.390625 0 0  0.3984375 0 0  0.40625 0 0  0.4140625 0 0  0.421875 0 0  0.4296875 0 0  0.4375 0 0  0.4453125 0 0  0.453125 0 0  0.4609375 0 0  0.46875 0 0  0.4765625 0 0  0.484375 0 0  0.4921875 0 0  0.5 0 0  0.5078125 0 0  0.515625 0 0  0.5234375 0 0  0.53125 0 0  0.5390625 0 0  0.546875 0 0  0.5546875 0 0  0.5625 0 0  0.5703125 0 0  0.578125 0 0  0.5859375 0 0  0.59375 0 0  0.6015625 0 0  0.609375 0 0  0.6171875 0 0  0.625 0 0  0.6328125 0 0  0.640625 0 0  0.6484375 0 0  0.65625 0 0  0.6640625 0 0  0.671875 0 0  0.6796875 0 0  0.6875 0 0  0.6953125 0 0  0.703125 0 0  0.7109375 0 0  0.71875 0 0  0.7265625 0 0  0.734375 0 0  0.7421875 0 0  0.75 0 0  0.7578125 0 0  0.765625 0 0  0.7734375 0 0  0.78125 0 0  0.7890625 0 0  0.796875 0 0  0.8046875 0 0  0.8125 0 0  0.8203125 0 0  0.828125 0 0  0.8359375 0 0  0.84375 0 0  0.8515625 0 0  0.859375 0 0  0.8671875 0 0  0.875 0 0  0.8828125 0 0  0.890625 0 0  0.8984375 0 0  0.90625 0 0  0.9140625 0 0  0.921875 0 0  0.9296875 0 0  0.9375 0 0  0.9453125 0 0  0.953125 0 0  0.9609375 0 0  0.96875 0 0  0.9765625 0 0  0.984375 0 0  0.9921875 0 0  1 0 0  0 0.0078125 0  0.0078125 0.0078125 0  0.015625 0.0078125 0  0.0234375 0.0078125 0  0.03125 0.0078125 0  0.0390625 0.0078125 0  0.046875 0.0078125 0  0.0546875 0.0078125 0  0.0625 0.0078125 0  0.0703125 0.0078125 0  0.078125 0.0078125 0  0.0859375 0.0078125 0  0.09375 0.0078125 0  0.1015625 0.0078125 0  0.109375 0.0078125 0  0.1171875 0.0078125 0  0.125 0.0078125 0  0.1328125 0.0078125 0  0.140625 0.0078125 0  0.1484375 0.0078125 0  0.15625 0.0078125 0  0.1640625 0.0078125 0  0.171875 0.0078125 0  0.1796875 0.0078125 0  0.1875 0.0078125 0  0.1953125 0.0078125 0  0.203125 0.0078125 0  0.2109375 0.0078125 0  0.21875 0.0078125 0  0.2265625 0.0078125 0  0.234375 0.0078125 0  0.2421875 0.0078125 0  0.25 0.0078125 0  0.2578125 0.0078125 0  0.265625 0.0078125 0  0.2734375 0.0078125 0  0.28125 0.0078125 0  0.2890625 0.0078125 0  0.296875 0.0078125 0  0.3046875 0.0078125 0  0.3125 0.0078125 0  0.3203125 0.0078125 0  0.328125 0.0078125 0  0.3359375 0.0078125 0  0.34375 0.0078125 0  0.3515625 0.0078125 0  0.359375 0.0078125 0  0.3671875 0.0078125 0  0.375 0.0078125 0  0.3828125 0.0078125 0  0.390625 0.0078125 0  0.3984375 0.0078125 0  0.40625 0.0078125 0  0.4140625 0.0078125 0  0.421875 0.0078125 0  0.4296875 0.0078125 0  0.4375 0.0078125 0  0.4453125 0.0078125 0  0.453125 0.0078125 0  0.4609375 0.0078125 0  0.46875 0.0078125 0  0.4765625 0.0078125 0  0.484375 0.0078125 0  0.4921875 0.0078125 0  0.5 0.0078125 0  0.5078125 0.0078125 0  0.515625 0.0078125 0  0.5234375 0.0078125 0  0.53125 0.0078125 0  0.5390625 0.0078125 0  0.546875 0.0078125 0  0.5546875 0.0078125 0  0.5625 0.0078125 0  0.5703125 0.0078125 0  0.578125 0.0078125 0  0.5859375 0.0078125 0  0.59375 0.0078125 0  0.6015625 0.0078125 0  0.609375 0.0078125 0  0.6171875 0.0078125 0  0.625 0.0078125 0  0.6328125 0.0078125 0  0.640625 0.0078125 0  0.6484375 0.0078125 0  0.65625 0.0078125 0  0.6640625 0.0078125 0  0.671875 0.0078125 0  0.6796875 0.0078125 0  0.6875 0.0078125 0  0.6953125 0.0078125 0  0.703125 0.0078125 0  0.7109375 0.0078125 0  0.71875 0.0078125 0  0.7265625 0.0078125 0  0.734375 0.0078125 0  0.7421875 0.0078125 0  0.75 0.0078125 0  0.7578125 0.0078125 0  0.765625 0.0078125 0  0.7734375 0.0078125 0  0.78125 0.0078125 0  0.7890625 0.0078125 0  0.796875 0.0078125 0  0.8046875 0.0078125 0  0.8125 0.0078125 0  0.8203125 0.0078125 0  0.828125 0.0078125 0  0.8359375 0.0078125 0  0.84375 0.0078125 0  0.8515625 0.0078125 0  0.859375 0.0078125 0  0.8671875 0.0078125 0  0.875 0.0078125 0  0.8828125 0.0078125 0  0.890625 0.0078125 0  0.8984375 0.0078125 0  0.90625 0.0078125 0  0.9140625 0.0078125 0  0.921875 0.0078125 0  0.9296875 0.0078125 0  0.9375 0.0078125 0  0.9453125 0.0078125 0  0.953125 0.0078125 0  0.9609375 0.0078125 0  0.96875 0.0078125 0  0.9765625 0.0078125 0  0.984375 0.0078125 0  0.9921875 0.0078125 0  1 0.0078125 0  0 0.015625 0  0.0078125 0.015625 0  0.015625 0.015625 0  0.0234375 0.015625 0  0.03125 0.015625 0  0.0390625 0.015625 0  0.046875 0.015625 0  0.0546875 0.015625 0  0.0625 0.015625 0  0.0703125 0.015625 0  0.078125 0.015625 0  0.0859375 0.015625 0  0.09375 0.015625 0  0.1015625 0.015625 0  0.109375 0.015625 0  0.1171875 0.015625 0  0.125 0.015625 0  0.1328125 0.015625 0  0.140625 0.015625 0  0.1484375 0.015625 0  0.15625 0.015625 0  0.1640625 0.015625 0  0.171875 0.015625 0  0.1796875 0.015625 0  0.1875 0.015625 0  0.1953125 0.015625 0  0.203125 0.015625 0  0.2109375 0.015625 0  0.21875 0.015625 0  0.2265625 0.015625 0  0.234375 0.015625 0  0.2421875 0.015625 0  0.25 0.015625 0  0.2578125 0.015625 0  0.265625 0.015625 0  0.2734375 0.015625 0  0.28125 0.015625 0  0.2890625 0.015625 0  0.296875 0.015625 0  0.3046875 0.015625 0  0.3125 0.015625 0  0.3203125 0.015625 0  0.328125 0.015625 0  0.3359375 0.015625 0  0.34375 0.015625 0  0.3515625 0.015625 0  0.359375 0.015625 0  0.3671875 0.015625 0  0.375 0.015625 0  0.3828125 0.015625 0  0.390625 0.015625 0  0.3984375 0.015625 0  0.40625 0.015625 0  0.4140625 0.015625 0  0.421875 0.015625 0  0.4296875 0.015625 0  0.4375 0.015625 0  0.4453125 0.015625 0  0.453125 0.015625 0  0.4609375 0.015625 0  0.46875 0.015625 0  0.4765625 0.015625 0  0.484375 0.015625 0  0.4921875 0.015625 0  0.5 0.015625 0  0.5078125 0.015625 0  0.515625 0.015625 0  0.5234375 0.015625 0  0.53125 0.015625 0  0.5390625 0.015625 0  0.546875 0.015625 0  0.5546875 0.015625 0  0.5625 0.015625 0  0.5703125 0.015625 0  0.578125 0.015625 0  0.5859375 0.015625 0  0.59375 0.015625 0  0.6015625 0.015625 0  0.609375 0.015625 0  0.6171875 0.015625 0  0.625 0.015625 0  0.6328125 0.015625 0  0.640625 0.015625 0  0.6484375 0.015625 0  0.65625 0.015625 0  0.6640625 0.015625 0  0.671875 0.015625 0  0.6796875 0.015625 0  0.6875 0.015625 0  0.6953125 0.015625 0  0.703125 0.015625 0  0.7109375 0.015625 0  0.71875 0.015625 0  0.7265625 0.015625 0  0.734375 0.015625 0  0.7421875 0.015625 0  0.75 0.015625 0  0.7578125 0.015625 0  0.765625 0.015625 0  0.7734375 0.015625 0  0.78125 0.015625 0  0.7890625 0.015625 0  0.796875 0.015625 0  0.8046875 0.015625 0  0.8125 0.015625 0  0.8203125 0.015625 0  0.828125 0.015625 0  0.8359375 0.015625 0  0.84375 0.015625 0  0.8515625 0.015625 0  0.859375 0.015625 0  0.8671875 0.015625 0  0.875 0.015625 0  0.8828125 0.015625 0  0.890625 0.015625 0  0.8984375 0.015625 0  0.90625 0.015625 0  0.9140625 0.015625 0  0.921875 0.015625 0  0.9296875 0.015625 0  0.9375 0.015625 0  0.9453125 0.015625 0  0.953125 0.015625 0  0.9609375 0.015625 0  0.96875 0.015625 0  0.9765625 0.015625 0  0.984375 0.015625 0  0.9921875 0.015625 0  1 0.015625 0  0 0.0234375 0  0.0078125 0.0234375 0  0.015625 0.0234375 0  0.0234375 0.0234375 0  0.03125 0.0234375 0  0.0390625 0.0234375 0  0.046875 0.0234375 0  0.0546875 0.0234375 0  0.0625 0.0234375 0  0.0703125 0.0234375 0  0.078125 0.0234375 0  0.0859375 0.0234375 0  0.09375 0.0234375 0  0.1015625 0.0234375 0  0.109375 0.0234375 0  0.1171875 0.0234375 0  0.125 0.0234375 0  0.1328125 0.0234375 0  0.140625 0.0234375 0  0.1484375 0.0234375 0  0.15625 0.0234375 0  0.1640625 0.0234375 0  0.171875 0.0234375 0  0.1796875 0.0234375 0  0.1875 0.0234375 0  0.1953125 0.0234375 0  0.203125 0.0234375 0  0.2109375 0.0234375 0  0.21875 0.0234375 0  0.2265625 0.0234375 0  0.234375 0.0234375 0  0.2421875 0.0234375 0  0.25 0.0234375 0  0.2578125 0.0234375 0  0.265625 0.0234375 0  0.2734375 0.0234375 0  0.28125 0.0234375 0  0.2890625 0.0234375 0  0.296875 0.0234375 0  0.3046875 0.0234375 0  0.3125 0.0234375 0  0.3203125 0.0234375 0  0.328125 0.0234375 0  0.3359375 0.0234375 0  0.34375 0.0234375 0  0.3515625 0.0234375 0  0.359375 0.0234375 0  0.3671875 0.0234375 0  0.375 0.0234375 0  0.3828125 0.0234375 0  0.390625 0.0234375 0  0.3984375 0.0234375 0  0.40625 0.0234375 0  0.4140625 0.0234375 0  0.421875 0.0234375 0  0.4296875 0.0234375 0  0.4375 0.0234375 0  0.4453125 0.0234375 0  0.453125 0.0234375 0  0.4609375 0.0234375 0  0.46875 0.0234375 0  0.4765625 0.0234375 0  0.484375 0.0234375 0  0.4921875 0.0234375 0  0.5 0.0234375 0  0.5078125 0.0234375 0  0.515625 0.0234375 0  0.5234375 0.0234375 0  0.53125 0.0234375 0  0.5390625 0.0234375 0  0.546875 0.0234375 0  0.5546875 0.0234375 0  0.5625 0.0234375 0  0.5703125 0.0234375 0  0.578125 0.0234375 0  0.5859375 0.0234375 0  0.59375 0.0234375 0  0.6015625 0.0234375 0  0.609375 0.0234375 0  0.6171875 0.0234375 0  0.625 0.0234375 0  0.6328125 0.0234375 0  0.640625 0.0234375 0  0.6484375 0.0234375 0  0.65625 0.0234375 0  0.6640625 0.0234375 0  0.671875 0.0234375 0  0.6796875 0.0234375 0  0.6875 0.0234375 0  0.6953125 0.0234375 0  0.703125 0.0234375 0  0.7109375 0.0234375 0  0.71875 0.0234375 0  0.7265625 0.0234375 0  0.734375 0.0234375 0  0.7421875 0.0234375 0  0.75 0.0234375 0  0.7578125 0.0234375 0  0.765625 0.0234375 0  0.7734375 0.0234375 0  0.78125 0.0234375 0  0.7890625 0.0234375 0  0.796875 0.0234375 0  0.8046875 0.0234375 0  0.8125 0.0234375 0  0.8203125 0.0234375 0  0.828125 0.0234375 0  0.8359375 0.0234375 0  0.84375 0.0234375 0  0.8515625 0.0234375 0  0.859375 0.0234375 0  0.8671
[...]
<PointData  Scalars="u_sol"> 
<DataArray  type="Float64"  Name="u_sol"  format="ascii">1.1574459913251819e-06  -1.9534790030640160e-06  -1.1778543732128008e-05  -2.0272294275145994e-05  -2.5101693856800343e-05  -2.5786575311702812e-05  -2.2175226653272675e-05  -1.4521495478837767e-05  -3.4648906097531213e-06  9.9972664441854450e-06  2.4654554804854468e-05  3.9279957856360216e-05  5.2828287431358191e-05  6.4583198797546338e-05  7.4223578375195960e-05  8.1810563768657020e-05  8.7717312800358587e-05  9.2531552056779629e-05  9.6959990981817755e-05  1.0175042638171044e-04  1.0764028101703998e-04  1.1532428543775563e-04  1.2543731500514924e-04  1.3854423539270443e-04  1.5513025934056575e-04  1.7560302198068499e-04  2.0031339132817853e-04  2.2959440771954450e-04  2.6386304838145821e-04  3.0370975369584097e-04  3.4999415322120396e-04  4.0395362644133460e-04  4.6713280494561910e-04  5.4135077924495287e-04  6.2878365801697397e-04  7.3156421249960849e-04  8.5198602582249778e-04  9.9195581343293157e-04  1.1552832738612436e-03  1.3411101612794353e-03  1.5503001614679609e-03  1.7835351105822447e-03  2.0370240077004016e-03  2.3147554279930992e-03  2.6097254636054607e-03  2.9016791040407113e-03  3.1792251796702361e-03  3.4295982236620128e-03  3.6326545453070958e-03  3.7694127636709548e-03  3.8213979516252255e-03  3.7729854519210236e-03  3.6118591109243498e-03  3.3296340137335149e-03  2.9221087126717728e-03  2.3894933093810671e-03  1.7364965776598511e-03  9.7229223505797984e-04  1.1034887790817985e-04  -8.3184192430028924e-04  -1.8330545027914937e-03  -2.8687671848759075e-03  -3.9110240960974719e-03  -4.9291661391635978e-03  -5.8822660336341603e-03  -6.7494669816950976e-03  -7.5135520670471904e-03  -8.1149815755998719e-03  -8.5043617888515624e-03  -8.6460105920530585e-03  -8.5024293612036492e-03  -8.0478743061957406e-03  -7.2662638172909235e-03  -6.1580081510349237e-03  -4.7416836062484456e-03  -3.0569890864649719e-03  -1.1647474480388515e-03  8.5493919897101900e-04  2.9070522094573142e-03  4.8893419521797848e-03  6.7010819441847688e-03  8.2512446160673495e-03  9.4697365775592048e-03  1.0313817767931947e-02  1.0769879519533775e-02  1.0854249836037911e-02  1.0606589560129989e-02  1.0084898523057792e-02  9.3512172000224485e-03  8.4722150574786208e-03  7.5366215612391709e-03  6.5640719710465985e-03  5.5524950103203819e-03  4.5536895394987327e-03  3.5930080844844810e-03  2.6825665577431368e-03  1.8437772045459008e-03  1.0995723968280442e-03  4.7170478349221803e-04  -2.2702623291843330e-05  -3.7609343656830839e-04  -5.9407239506365666e-04  -6.9545231413015575e-04  -7.0821254775298712e-04  -6.6307245617961135e-04  -5.8670143104402146e-04  -4.9957562445628002e-04  -4.1508234925890554e-04  -3.3955501403600631e-04  -2.7515704920054251e-04  -2.2204719615162691e-04  -1.7938678092068315e-04  -1.4575077312837059e-04  -1.1975841305670248e-04  -1.0003360588191560e-04  -8.5258562952082183e-05  -7.4178203191921981e-05  -6.5599105548850794e-05  -5.8432666302888066e-05  -5.1728367669353774e-05  -4.4727764678205712e-05  -3.6923468893843470e-05  -2.8112780901821561e-05  -1.8469891324729701e-05  -8.5444623414661186e-06  4.4834699776365015e-07  6.9710039958094323e-06  6.3803771789228025e-06  -4.5533083631309390e-08  4.3242069573421748e-06  -2.6713705479765951e-05  -7.0598310313798180e-05  -7.4131624725402579e-05  -5.3217856234878254e-06  1.5168876969237798e-04  3.9991233463887882e-04  7.3221039693927318e-04  1.1332443571710372e-03  1.5819354447552554e-03  2.0543898460678588e-03  2.5270083798154593e-03  2.9792970098315610e-03  3.3959591748709077e-03  3.7680324814728240e-03  4.0930352317778860e-03  4.3742822401772394e-03  4.6196434074145774e-03  4.8400226390888047e-03  5.0478069830469574e-03  5.2554535836111162e-03  5.4742908402940710e-03  5.7135318148096598e-03  5.9794932734160014e-03  6.2750328017414344e-03  6.5992287956383629e-03  6.9473868345192140e-03  7.3113960697686617e-03  7.6803057381506067e-03  8.0411579768844971e-03  8.3794753600270125e-03  8.6790881169412047e-03  8.9212159288014712e-03  9.0830715959445540e-03  9.1364945432787243e-03  9.0449550295249870e-03  8.7600316294267257e-03  8.2257490164058880e-03  7.3795983075787223e-03  6.1612150459821255e-03  4.4891334374250642e-03  2.2644418335073025e-03  -6.0113331497977252e-04  -4.1956392002283818e-03  -8.5846445255482913e-03  -1.3808735170237691e-02  -1.9901082181831831e-02  -2.6866491467693720e-02  -3.4671321618185563e-02  -4.3248860987798711e-02  -5.2496730855634915e-02  -6.2280809075271934e-02  -7.2440621212690390e-02  -8.2797270010428317e-02  -9.3161787925146441e-02  -1.0334304644934769e-01  -1.1315423123137029e-01  -1.2241755219855048e-01  -1.3096714089708622e-01  -1.3865039948650143e-01  -1.4532823038053910e-01  -1.5087444340209413e-01  -1.5517535570085281e-01  -1.5812837356543502e-01  -1.5964808286468787e-01  -1.5964117843800557e-01  -1.5802471407332574e-01  -1.5476687642426398e-01  -1.4984341625201100e-01  -1.4324272782222280e-01  -1.3498372656815860e-01  -1.2511138708996264e-01  -1.1370701391948905e-01  -1.0088899899377554e-01  -8.6818032982070401e-02  -7.1697460350404252e-02  -5.5773170841582752e-02  -3.9329578298499791e-02  -2.2682623031690753e-02  -6.1696437545637611e-03  9.8647201762397212e-03  2.5083411867612242e-02  3.9173752763792972e-02  5.1863976577144720e-02  6.2936565232822830e-02  7.2238443190960483e-02  7.9685542818778557e-02  8.5259075778954613e-02  8.9001424615168884e-02  9.1000432042866120e-02  9.1340443451686765e-02  9.0182575358792580e-02  8.7726324071936201e-02  8.4086005381954237e-02  7.9361549922079389e-02  7.3665525121973968e-02  6.7117103400429728e-02  5.9866364012917735e-02  5.2116393497761732e-02  4.4132862770261419e-02  3.6232524818514494e-02  2.8747395704078246e-02  2.1973127063104985e-02  1.6120226071602073e-02  1.1287409207680911e-02  7.4637850433384306e-03  4.5565537750942072e-03  2.4266206003159970e-03  9.1923171455764467e-04  -1.1319725856320880e-04  -7.9707077390637668e-04  -1.2332318407700120e-03  -1.4991203238195262e-03  -1.6510864852462459e-03  -1.7276996309425429e-03  -1.7531557794795974e-03  -1.7405545443946798e-03  -1.6951296408670312e-03  -1.6172618390644473e-03  -1.5052701140560558e-03  -1.3578492279744320e-03  -1.1761241937726817e-03  -9.6526211314721484e-04  -7.3557737647760783e-04  -5.0306038721784389e-04  -2.8931035612448145e-04  -1.2001897035327454e-04  -2.1155939962766042e-05  5.0189863471153738e-06  3.6850762144834796e-06  -2.4123050316403946e-05  -4.3360863372370231e-05  1.5354940188433484e-05  1.9356332054871065e-04  5.1338132764230471e-04  9.7738970944936075e-04  1.5721549302005417e-03  2.2716521741808831e-03  3.0415747454290241e-03  3.8440590553434446e-03  4.6423694753705957e-03  5.4049299053141866e-03  6.1082220918187149e-03  6.7382910576923739e-03  7.2908937297304667e-03  7.7704794342565789e-03  8.1883183433041472e-03  8.5601978917407943e-03  8.9040085666053700e-03  9.2374514264216105e-03  9.5759905084451882e-03  9.9311116806754009e-03  1.0308899230762227e-02  1.0708954666112056e-02  1.1123688033985875e-02  1.1538002778130369e-02  1.1929618813832176e-02  1.2269681804425286e-02  1.2522799539450796e-02  1.2647767997850244e-02  1.2597385795707371e-02  1.2314358401323344e-02  1.1725556212572496e-02  1.0743255411998756e-02  9.2710001667695129e-03  7.2002843294896278e-03  4.3895820773653454e-03  6.7970758560240195e-04  -4.0950347873175029e-03  -1.0073418178550014e-02  -1.7365978783509574e-02  -2.6073755712673317e-02  -3.6243797418598192e-02  -4.7868475272979147e-02  -6.0874103698524501e-02  -7.5101060159192920e-02  -9.0320343989689661e-02  -1.0624963059814738e-01  -1.2256993284378516e-01  -1.3895109089169186e-01  -1.5507248956777123e-01  -1.7063978968150562e-01  -1.8539499444734739e-01  -1.9912115888888871e-01  -2.1164250962878284e-01  -2.2282156265111977e-01  -2.3255438814555462e-01  -2.4076510182454669e-01  -2.4740028668845188e-01  -2.5242381509672063e-01  -2.5581244899386624e-01  -2.5755197557763349e-01  -2.5763562242200094e-01  -2.5605898556859075e-01  -2.5283644597321714e-01  -2.4798926138171587e-01  -2.4151826435853449e-01  -2.3343513100058821e-01  -2.2376260706603565e-01  -2.1253094627484981e-01  -1.9978779594949431e-01  -1.8559830218824735e-01  -1.7005286462447977e-01  -1.5326958336472901e-01  -1.3539943796151352e-01  -1.1662773600544990e-01  -9.7174872223397504e-02  -7.7293363894627848e-02  -5.7262045821500435e-02  -3.7377536016787095e-02  -1.7940540523425388e-02  7.5602979293195346e-04  1.8440082831772932e-02  3.4873237442031448e-02  4.9858761954943959e-02  6.3246363702274766e-02  7.4932849041256355e-02  8.4859837015877612e-02  9.3002032522493200e-02  9.9393155794762281e-02  1.0402824854678866e-01  1.0685961356121668e-01  1.0792989250488069e-01  1.0729247968555335e-01  1.0494841853998220e-01  1.0088750161643838e-01  9.5121184151001861e-02  8.7718844787326916e-02  7.8854098592438485e-02  6.8846181156225345e-02  5.8170804534788539e-02  4.7418084885909331e-02  3.7197804557238381e-02  2.8021995196718549e-02  2.0216202046104324e-02  1.3892516394220643e-02  8.9836667732308521e-03  5.3103758860946213e-03  2.6481935951504000e-03  7.7177882004867467e-04  -5.1982522038980842e-04  -1.3892108943434846e-03  -1.9599838617444252e-03  -2.3213450723166408e-03  -2.5336100456239199e-03  -2.6345956977360317e-03  -2.6457112144919271e-03  -2.5776792677382337e-03  -2.4356224655744138e-03  -2.2234645450001662e-03  -1.9475023975274593e-03  -1.6191076854859747e-03  -1.2564811968781950e-03  -8.8534264372973207e-04  -5.3818366119404853e-04  -2.5168906548533610e-04  -5.9358347261822078e-05  1.1397645236701027e-05  4.4892623448601976e-07  -6.2371112592369120e-06  3.2391727791121526e-05  1.8576828105424463e-04  4.9676377847600111e-04  9.8558348427566314e-04  1.6499990666511393e-03  2.4685751820351341e-03  3.4052576673706857e-03  4.4151421880037284e-03  5.4505970436294548e-03  6.4669576350917602e-03  7.4270874796465982e-03  8.3043631022905687e-03  9.0839294343467332e-03  9.7623205203121125e-03  1.0345811013898287e-02  1.0847960857294841e-02  1.1286707736109685e-02  1.1681354757281734e-02  1.2049691539460554e-02  1.2405373745461780e-02  1.2755622977574269e-02  1.3099220465179792e-02  1.3424811545781068e-02  1.3709829574863606e-02  1.3919729741187659e-02  1.4007231304818617e-02  1.3913321905415617e-02  1.3567866827802585e-02  1.2883161241188634e-02  1.1751931841261578e-02  1.0054548526665295e-02  7.6559993721414419e-03  4.3825936686987645e-03  2.5055873223139979e-05  -5.6335540020160087e-03  -1.2788371485865414e-02  -2.1624681386328476e-02  -3.2298664978099918e-02  -4.4906002071419197e-02  -5.9452585590360735e-02  -7.5819094794817216e-02  -9.3776013358878377e-02  -1.1298562669398345e-01  -1.3302692079819153e-01  -1.5343995079671821e-01  -1.7376707367327054e-01  -1.9358942116418659e-01  -2.1255161712689385e-01  -2.3037347533577382e-01  -2.4685175184613492e-01  -2.6185361787728434e-01  -2.7530570854900938e-01  -2.8718104188894450e-01  -2.9748605855438087e-01  -3.0624891076526783e-01  -3.1350971811619155e-01  -3.1931291261049027e-01  -3.2370157605479111e-01  -3.2671349937924571e-01  -3.2837857777962293e-01  -3.2871749810497536e-01  -3.2774011626818289e-01  -3.2544719884598561e-01  -3.2182101367064464e-01  -3.1683037740743569e-01  -3.1045031996202654e-01  -3.0265239591246312e-01  -2.9340793609662286e-01  -2.8269485507835940e-01  -2.7049992736531769e-01  -2.5682673155476332e-01  -2.4170065638225374e-01  -2.2517711228723591e-01  -2.0734754666358626e-01  -1.8834598567001570e-01  -1.6835241067131523e-01  -1.4759358859684041e-01  -1.2633894005799015e-01  -1.0489122315141376e-01  -8.3572325432051703e-02  -6.2704167236568714e-02  -4.2587965584783213e-02  -2.3484727313938653e-02  -5.6012164096565864e-03  1.0918354794671585e-02  2.5992735759758707e-02  3.9592331145410414e-02  5.1732538609383497e-02  6.2438706866731794e-02  7.1774100323911946e-02  7.9804812761153004e-02  8.6483847791574295e-02  9.1715300548850673e-02  9.5408060947774320e-02  9.7429072910427780e-02  9.7594221822750155e-02  9.5701823099406447e-02  9.1595814035562148e-02  8.5247299673150298e-02  7.6839410180264842e-02  6.6822564117615585e-02  5.5892493269018795e-02  4.4874851047571288e-02  3.4548057661156886e-02  2.5481975594434700e-02  1.7962841114852392e-02  1.2016858192877877e-02  7.4919501895925333e-03  4.1516893554022589e-03  1.7459420395256908e-03  4.6965079467742731e-05  -1.1327026325146288e-03  -1.9352880859431953e-03  -2.4627326785376250e-03  -2.7838894007674942e-03  -2.9427063760489769e-03  -2.9660520629524222e-03  -2.8706682631542634e-03  -2.6690870410307961e-03  -2.3744279283185459e-03  -2.0039791400639226e-03  -1.5815185556046297e-03  -1.1383001664653110e-03  -7.1239164939500505e-04  -3.4674407997519087e-04  -8.5854934778017641e-05  1.6375107114234039e-05  -3.8885270360996097e-06  1.6326172216031670e-05  1.2847256902144511e-04  3.9592421576195195e-04  8.5746980612205954e-04  1.5267256071617829e-03  2.3921058436762311e-03  3.4206718747989300e-03  4.5640161331976523e-03  5.7657067611212266e-03  6.9689272247717218e-03  8.1231822982055658e-03  9.1891322575991616e-03  1.0141140074779434e-02  1.0967586147285347e-02  1.1669346007679418e-02  1.2256997167754266e-02  1.2747306395837769e-02  1.3159507743470704e-02  1.3511666051968000e-02  1.3817278596827128e-02  1.4082146589895735e-02  1.4301492564194277e-02  1.4457510133173770e-02  1.4517037797578276e-02  1.4429305203407922e-02  1.4125897316963631e-02  1.3519767189274411e-02  1.2498997014833649e-02  1.0928141206230325e-02  8.6581170779098937e-03  5.5087684289420588e-03  1.2505864111639754e-03  -4.3745390507991888e-03  -1.1619696651462013e-02  -2.0737232617881712e-02  -3.1963894368846744e-02  -4.5475914407640969e-02  -6.1336030753340522e-02  -7.9462933578340153e-02  -9.9616927854943388e-02  -1.2139484471052833e-01  -1.4427232388609210e-01  -1.6765975576618175e-01  -1.9097065187111270e-01  -2.1367885384468227e-01  -2.3535675601055470e-01  -2.5569258934162220e-01  -2.7448937102162718e-01  -2.9165054211292818e-01  -3.0715856651971218e-01  -3.2105154416880899e-01  -3.3340152831662589e-01  -3.4429651859065230e-01  -3.5382695816103543e-01  -3.6207657521993103e-01  -3.6911694327698591e-01  -3.7500487446718683e-01  -3.7978178024228199e-01  -3.8347424252828732e-01  -3.8609519759292044e-01  -3.8764539206461551e-01  -3.8811456502891822e-01  -3.8748331571620581e-01  -3.8572121076680027e-01  -3.8279450091825484e-01  -3.7866708272315058e-01  -3.7329277902015312e-01  -3.6662110868244308e-01  -3.5859792782661148e-01  -3.4916725838459650e-01  -3.3827511503956187e-01  -3.2587363093116212e-01  -3.1192771646995354e-01  -2.9642260312523327e-01  -2.7937359977657233e-01  -2.6083633071004375e-01  -2.4091743550588302e-01  -2.1978336342139654e-01  -1.9766580770449563e-01  -1.7486107374810750e-01  -1.5172142474695452e-01  -1.2863747859660443e-01  -1.0601189791764733e-01  -8.4227345555911173e-02  -6.3613018978560476e-02  -4.4416603266809997e-02  -2.6787525514705021e-02  -1.0772656377689519e-02  3.6685174656001995e-03  1.6648226669602965e-02  2.8307049840274063e-02  3.8796340015154952e-02  4.8285759120075336e-02  5.6881148526395475e-02  6.4569691730161985e-02  7.1235020907994814e-02  7.6663671069668426e-02  8.0550269416957115e-02  8.2513028194239377e-02  8.2165029241009033e-02  7.9233852315818892e-02  7.3690948333352463e-02  6.5854911252263379e-02  5.6398862174945254e-02  4.6229614553298937e-02  3.6272800049664503e-02  2.7260411337772263e-02  1.9614926596376127e-02  1.3457386070713456e-02  8.6935230695718135e-03  5.1167289708046650e-03  2.4911932700700818e-03  5.9794797508622957e-04  -7.4547764679999131e-04  -1.6784319978573419e-03  -2.3009972043309575e-03  -2.6816440949626063e-03  -2.8657082194317495e-03  -2.8835700043500609e-03  -2.7576341600838205e-03  -2.5080868380889998e-03  -2.1573233020205748e-03  -1.7329859185223301e-03  -1.2696718929380993e-03  -8.0922003509544796e-04  -4.0078531633407961e-04  -1.0059275506919791e-04  1.9230446042307765e-05  -8.6194318097234929e-06  4.0168012792282715e-05  2.3444227449257894e-04  6.3185432123572601e-04  1.2637200490032774e-03  2.1328175007482961e-03  3.2132053262274316e-03  4.4553035748432076e-03  5.7939045854920410e-03  7.1580526062843255e-03  8.4806950149150812e-03  9.7065176017365733e-03  1.0796850357917262e-02  1.1731163589388501e-02  1.2505639776632466e-02  1.3129620957116435e-02  1.3620918265529820e-02  1.4000761976106715e-02  1.4288892553289662e-02  1.4499026774564220e-02  1.4634744923340158e-02  1.4685822581208119e-02  1.4624722039901537e-02  1.4403136434414493e-02  1.3950246877086112e-02  1.3169943184409172e-02  1.1934197509865315e-02  1.0086801758792381e-02  7.4499926441549073e-03  3.8044957015071195e-03  -1.1208189990575786e-03  -7.6169528691670410e-03  -1.5983565803888156e-02  -2.6531331354072929e-02  -3.9542858495864225e-02  -5.5202305356869000e-02  -7.3545457558103641e-02  -9.4419155223669921e-02  -1.1745590746941027e-01  -1.4209642274669482e-01  -1.6765356290312550e-01  -1.9340448509275993e-01  -2.1867666534022151e-01  -2.4291507783067565e-01  -2.6571717336051603e-01  -2.8683728076745818e-01  -3.0616796242332406e-01  -3.2370868926696345e-01  -3.3953067864115655e-01  -3.5374483070612434e-01  -3.6647636618938861e-01  -3.7784747410671177e-01  -3.8796728681436959e-01  -3.9692761256163872e-01  -4.0480253911721437e-01  -4.1165022116900529e-01  -4.1751555207121704e-01  -4.2243286414964332e-01  -4.2642818212518163e-01  -4.2952082530932656e-01  -4.3172435662358760e-01  -4.3304686616534921e-01  -4.3349098428240312e-01  -4.3305251753040164e-01  -4.3172303409518642e-01  -4.2948400882775978e-01  -4.2630424636790920e-01  -4.2214325735803726e-01  -4.1694812907209816e-01  -4.1065390031267512e-01  -4.0318321517333272e-01  -3.9444735228739924e-01  -3.8434840583864532e-01  -3.7278347378451465e-01  -3.5965131719133647e-01  -3.4486196068179220e-01  -3.2834953751335055e-01  -3.1008798906673202e-01  -2.9010876040860750e-01  -2.6851841141147137e-01  -2.4551332253170274e-01  -2.2138774255201435e-01  -1.9653122170358656e-01  -1.7141236419728453e-01  -1.4654766202101951e-01  -1.2245755507844354e-01  -9.9615252458595052e-02  -7.8397403239961166e-02  -5.9047126988479123e-02  -4.1656477773903827e-02  -2.6175845201017262e-02  -1.2437458378462281e-02  -1.9790837107390885e-04  1.0812295163639083e-02  2.0863558999911384e-02  3.0186883910814647e-02  3.8922499675267376e-02  4.7063774601387304e-02  5.4421265230269904e-02  6.0654922437065044e-02  6.5298032101438960e-02  6.7818807161422981e-02  6.7765469257619546e-02  6.4930454390475192e-02  5.9489906992562437e-02  5.2034619220953628e-02  4.3450053875618337e-02  3.4686203860491753e-02  2.6525832962350615e-02  1.9453208834545245e-02  1.3651549456600858e-02  9.0841475351949724e-03  5.5937385124774580e-03  2.9834941204219863e-03  1.0651681914562075e-03  -3.2048255843141263e-04  -1.2965888263867080e-03  -1.9526985984065759e-03  -2.3515914368461657e-03  -2.5369180704692814e-03  -2.5406886650329061e-03  -2.3895843441082217e-03  -2.1101231369948623e-03  -1.7325584688281219e-03  -1.2935977177371022e-03  -8.3803249882739123e-04  -4.2051391430800807e-04  -1.0647375453086553e-04  2.0388026201233571e-05  -1.3718331135673121e-05  6.5351330861057605e-05  3.5086646697876498e-04  8.9677117379653129e-04  1.7245622186508353e-03  2.8213283508572028e-03  4.1403507925175951e-03  5.6085789766947992e-03  7.1381792234338918e-03  8.6399011089546614e-03  1.0035505796435303e-02  1.1266811267418991e-02  1.2299822785468702e-02  1.3124182256404786e-02  1.3748867310251048e-02  1.4195702637106544e-02  1.4492034927237309e-02  1.4663541675340230e-02  1.4727686024188006e-02  1.4687998319022981e-02  1.4528955945734303e-02  1.4211359139200777e-02  1.3668960933606996e-02  1.2804576730166542e-02  1.1483197266062572e-02  9.5345081482159730e-03  6.7578441654369244e-03  2.9025859861491342e-03  -2.3332532733590984e-03  -9.2719078235313952e-03  -1.8256018297137223e-02  -2.9647853927933943e-02  -4.3770907071485010e-02  -6.0836819373836004e-02  -8.0880783046149249e-02  -1.0370200453159602e-01  -1.2883756091304574e-01  -1.5559913569691372e-01  -1.8316472539431064e-01 