<?xml version="1.0"?>
<VTKFile type="UnstructuredGrid"  version="0.1"  >
<UnstructuredGrid>
<Piece  NumberOfPoints="16641" NumberOfCells="16384">
<Points>
<DataArray  type="Float64"  NumberOfComponents="3"  format="ascii">0 0 0  0.0078125 0 0  0.015625 0 0  0.0234375 0 0  0.03125 0 0  0.0390625 0 0  0.046875 0 0  0.0546875 0 0  0.0625 0 0  0.0703125 0 0  0.078125 0 0  0.0859375 0 0  0.09375 0 0  0.1015625 0 0  0.109375 0 0  0.1171875 0 0  0.125 0 0  0.1328125 0 0  0.140625 0 0  0.1484375 0 0  0.15625 0 0  0.1640625 0 0  0.171875 0 0  0.1796875 0 0  0.1875 0 0  0.1953125 0 0  0.203125 0 0  0.2109375 0 0  0.21875 0 0  0.2265625 0 0  0.234375 0 0  0.2421875 0 0  0.25 0 0  0.2578125 0 0  0.265625 0 0  0.2734375 0 0  0.28125 0 0  0.2890625 0 0  0.296875 0 0  0.3046875 0 0  0.3125 0 0  0.3203125 0 0  0.328125 0 0  0.3359375 0 0  0.34375 0 0  0.3515625 0 0  0.359375 0 0  0.3671875 0 0  0.375 0 0  0.3828125 0 0  0.390625 0 0  0.3984375 0 0  0.40625 0 0  0.4140625 0 0  0.421875 0 0  0.4296875 0 0  0.4375 0 0  0.4453125 0 0  0.453125 0 0  0.4609375 0 0  0.46875 0 0  0.4765625 0 0  0.484375 0 0  0.4921875 0 0  0.5 0 0  0.5078125 0 0  0.515625 0 0  0.5234375 0 0  0.53125 0 0  0.5390625 0 0  0.546875 0 0  0.5546875 0 0  0.5625 0 0  0.5703125 0 0  0.578125 0 0  0.5859375 0 0  0.59375 0 0  0.6015625 0 0  0.609375 0 0  0.6171875 0 0  0.625 0 0  0.6328125 0 0  0.640625 0 0  0.6484375 0 0  0.65625 0 0  0.6640625 0 0  0.671875 0 0  0.6796875 0 0  0.6875 0 0  0.6953125 0 0  0.703125 0 0  0.7109375 0 0  0.71875 0 0  0.7265625 0 0  0.734375 0 0  0.7421875 0 0  0.75 0 0  0.7578125 0 0  0.765625 0 0  0.7734375 0 0  0.78125 0 0  0.7890625 0 0  0.796875 0 0  0.8046875 0 0  0.8125 0 0  0.8203125 0 0  0.828125 0 0  0.8359375 0 0  0.84375 0 0  0.8515625 0 0  0.859375 0 0  0.8671875 0 0  0.875 0 0  0.8828125 0 0  0.890625 0 0  0.8984375 0 0  0.90625 0 0  0.9140625 0 0  0.921875 0 0  0.9296875 0 0  0.9375 0 0  0.9453125 0 0  0.953125 0 0  0.9609375 0 0  0.96875 0 0  0.9765625 0 0  0.984375 0 0  0.9921875 0 0  1 0 0  0 0.0078125 0  0.0078125 0.0078125 0  0.015625 0.0078125 0  0.0234375 0.0078125 0  0.03125 0.0078125 0  0.0390625 0.0078125 0  0.046875 0.0078125 0  0.0546875 0.0078125 0  0.0625 0.0078125 0  0.0703125 0.0078125 0  0.078125 0.0078125 0  0.0859375 0.0078125 0  0.09375 0.0078125 0  0.1015625 0.0078125 0  0.109375 0.0078125 0  0.1171875 0.0078125 0  0.125 0.0078125 0  0.1328125 0.0078125 0  0.140625 0.0078125 0  0.1484375 0.0078125 0  0.15625 0.0078125 0  0.1640625 0.0078125 0  0.171875 0.0078125 0  0.1796875 0.0078125 0  0.1875 0.0078125 0  0.1953125 0.0078125 0  0.203125 0.0078125 0  0.2109375 0.0078125 0  0.21875 0.0078125 0  0.2265625 0.0078125 0  0.234375 0.0078125 0  0.2421875 0.0078125 0  0.25 0.0078125 0  0.2578125 0.0078125 0  0.265625 0.0078125 0  0.2734375 0.0078125 0  0.28125 0.0078125 0  0.2890625 0.0078125 0  0.296875 0.0078125 0  0.3046875 0.0078125 0  0.3125 0.0078125 0  0.3203125 0.0078125 0  0.328125 0.0078125 0  0.3359375 0.0078125 0  0.34375 0.0078125 0  0.3515625 0.0078125 0  0.359375 0.0078125 0  0.3671875 0.0078125 0  0.375 0.0078125 0  0.3828125 0.0078125 0  0.390625 0.0078125 0  0.3984375 0.0078125 0  0.40625 0.0078125 0  0.4140625 0.0078125 0  0.421875 0.0078125 0  0.4296875 0.0078125 0  0.4375 0.0078125 0  0.4453125 0.0078125 0  0.453125 0.0078125 0  0.4609375 0.0078125 0  0.46875 0.0078125 0  0.4765625 0.0078125 0  0.484375 0.0078125 0  0.4921875 0.0078125 0  0.5 0.0078125 0  0.5078125 0.0078125 0  0.515625 0.0078125 0  0.5234375 0.0078125 0  0.53125 0.0078125 0  0.5390625 0.0078125 0  0.546875 0.0078125 0  0.5546875 0.0078125 0  0.5625 0.0078125 0  0.5703125 0.0078125 0  0.578125 0.0078125 0  0.5859375 0.0078125 0  0.59375 0.0078125 0  0.6015625 0.0078125 0  0.609375 0.0078125 0  0.6171875 0.0078125 0  0.625 0.0078125 0  0.6328125 0.0078125 0  0.640625 0.0078125 0  0.6484375 0.0078125 0  0.65625 0.0078125 0  0.6640625 0.0078125 0  0.671875 0.0078125 0  0.6796875 0.0078125 0  0.6875 0.0078125 0  0.6953125 0.0078125 0  0.703125 0.0078125 0  0.7109375 0.0078125 0  0.71875 0.0078125 0  0.7265625 0.0078125 0  0.734375 0.0078125 0  0.7421875 0.0078125 0  0.75 0.0078125 0  0.7578125 0.0078125 0  0.765625 0.0078125 0  0.7734375 0.0078125 0  0.78125 0.0078125 0  0.7890625 0.0078125 0  0.796875 0.0078125 0  0.8046875 0.0078125 0  0.8125 0.0078125 0  0.8203125 0.0078125 0  0.828125 0.0078125 0  0.8359375 0.0078125 0  0.84375 0.0078125 0  0.8515625 0.0078125 0  0.859375 0.0078125 0  0.8671875 0.0078125 0  0.875 0.0078125 0  0.8828125 0.0078125 0  0.890625 0.0078125 0  0.8984375 0.0078125 0  0.90625 0.0078125 0  0.9140625 0.0078125 0  0.921875 0.0078125 0  0.9296875 0.0078125 0  0.9375 0.0078125 0  0.9453125 0.0078125 0  0.953125 0.0078125 0  0.9609375 0.0078125 0  0.96875 0.0078125 0  0.9765625 0.0078125 0  0.984375 0.0078125 0  0.9921875 0.0078125 0  1 0.0078125 0  0 0.015625 0  0.0078125 0.015625 0  0.015625 0.015625 0  0.0234375 0.015625 0  0.03125 0.015625 0  0.0390625 0.015625 0  0.046875 0.015625 0  0.0546875 0.015625 0  0.0625 0.015625 0  0.0703125 0.015625 0  0.078125 0.015625 0  0.0859375 0.015625 0  0.09375 0.015625 0  0.1015625 0.015625 0  0.109375 0.015625 0  0.1171875 0.015625 0  0.125 0.015625 0  0.1328125 0.015625 0  0.140625 0.015625 0  0.1484375 0.015625 0  0.15625 0.015625 0  0.1640625 0.015625 0  0.171875 0.015625 0  0.1796875 0.015625 0  0.1875 0.015625 0  0.1953125 0.015625 0  0.203125 0.015625 0  0.2109375 0.015625 0  0.21875 0.015625 0  0.2265625 0.015625 0  0.234375 0.015625 0  0.2421875 0.015625 0  0.25 0.015625 0  0.2578125 0.015625 0  0.265625 0.015625 0  0.2734375 0.015625 0  0.28125 0.015625 0  0.2890625 0.015625 0  0.296875 0.015625 0  0.3046875 0.015625 0  0.3125 0.015625 0  0.3203125 0.015625 0  0.328125 0.015625 0  0.3359375 0.015625 0  0.34375 0.015625 0  0.3515625 0.015625 0  0.359375 0.015625 0  0.3671875 0.015625 0  0.375 0.015625 0  0.3828125 0.015625 0  0.390625 0.015625 0  0.3984375 0.015625 0  0.40625 0.015625 0  0.4140625 0.015625 0  0.421875 0.015625 0  0.4296875 0.015625 0  0.4375 0.015625 0  0.4453125 0.015625 0  0.453125 0.015625 0  0.4609375 0.015625 0  0.46875 0.015625 0  0.4765625 0.015625 0  0.484375 0.015625 0  0.4921875 0.015625 0  0.5 0.015625 0  0.5078125 0.015625 0  0.515625 0.015625 0  0.5234375 0.015625 0  0.53125 0.015625 0  0.5390625 0.015625 0  0.546875 0.015625 0  0.5546875 0.015625 0  0.5625 0.015625 0  0.5703125 0.015625 0  0.578125 0.015625 0  0.5859375 0.015625 0  0.59375 0.015625 0  0.6015625 0.015625 0  0.609375 0.015625 0  0.6171875 0.015625 0  0.625 0.015625 0  0.6328125 0.015625 0  0.640625 0.015625 0  0.6484375 0.015625 0  0.65625 0.015625 0  0.6640625 0.015625 0  0.671875 0.015625 0  0.6796875 0.015625 0  0.6875 0.015625 0  0.6953125 0.015625 0  0.703125 0.015625 0  0.7109375 0.015625 0  0.71875 0.015625 0  0.7265625 0.015625 0  0.734375 0.015625 0  0.7421875 0.015625 0  0.75 0.015625 0  0.7578125 0.015625 0  0.765625 0.015625 0  0.7734375 0.015625 0  0.78125 0.015625 0  0.7890625 0.015625 0  0.796875 0.015625 0  0.8046875 0.015625 0  0.8125 0.015625 0  0.8203125 0.015625 0  0.828125 0.015625 0  0.8359375 0.015625 0  0.84375 0.015625 0  0.8515625 0.015625 0  0.859375 0.015625 0  0.8671875 0.015625 0  0.875 0.015625 0  0.8828125 0.015625 0  0.890625 0.015625 0  0.8984375 0.015625 0  0.90625 0.015625 0  0.9140625 0.015625 0  0.921875 0.015625 0  0.9296875 0.015625 0  0.9375 0.015625 0  0.9453125 0.015625 0  0.953125 0.015625 0  0.9609375 0.015625 0  0.96875 0.015625 0  0.9765625 0.015625 0  0.984375 0.015625 0  0.9921875 0.015625 0  1 0.015625 0  0 0.0234375 0  0.0078125 0.0234375 0  0.015625 0.0234375 0  0.0234375 0.0234375 0  0.03125 0.0234375 0  0.0390625 0.0234375 0  0.046875 0.0234375 0  0.0546875 0.0234375 0  0.0625 0.0234375 0  0.0703125 0.0234375 0  0.078125 0.0234375 0  0.0859375 0.0234375 0  0.09375 0.0234375 0  0.1015625 0.0234375 0  0.109375 0.0234375 0  0.1171875 0.0234375 0  0.125 0.0234375 0  0.1328125 0.0234375 0  0.140625 0.0234375 0  0.1484375 0.0234375 0  0.15625 0.0234375 0  0.1640625 0.0234375 0  0.171875 0.0234375 0  0.1796875 0.0234375 0  0.1875 0.0234375 0  0.1953125 0.0234375 0  0.203125 0.0234375 0  0.2109375 0.0234375 0  0.21875 0.0234375 0  0.2265625 0.0234375 0  0.234375 0.0234375 0  0.2421875 0.0234375 0  0.25 0.0234375 0  0.2578125 0.0234375 0  0.265625 0.0234375 0  0.2734375 0.0234375 0  0.28125 0.0234375 0  0.2890625 0.0234375 0  0.296875 0.0234375 0  0.3046875 0.0234375 0  0.3125 0.0234375 0  0.3203125 0.0234375 0  0.328125 0.0234375 0  0.3359375 0.0234375 0  0.34375 0.0234375 0  0.3515625 0.0234375 0  0.359375 0.0234375 0  0.3671875 0.0234375 0  0.375 0.0234375 0  0.3828125 0.0234375 0  0.390625 0.0234375 0  0.3984375 0.0234375 0  0.40625 0.0234375 0  0.4140625 0.0234375 0  0.421875 0.0234375 0  0.4296875 0.0234375 0  0.4375 0.0234375 0  0.4453125 0.0234375 0  0.453125 0.0234375 0  0.4609375 0.0234375 0  0.46875 0.0234375 0  0.4765625 0.0234375 0  0.484375 0.0234375 0  0.4921875 0.0234375 0  0.5 0.0234375 0  0.5078125 0.0234375 0  0.515625 0.0234375 0  0.5234375 0.0234375 0  0.53125 0.0234375 0  0.5390625 0.0234375 0  0.546875 0.0234375 0  0.5546875 0.0234375 0  0.5625 0.0234375 0  0.5703125 0.0234375 0  0.578125 0.0234375 0  0.5859375 0.0234375 0  0.59375 0.0234375 0  0.6015625 0.0234375 0  0.609375 0.0234375 0  0.6171875 0.0234375 0  0.625 0.0234375 0  0.6328125 0.0234375 0  0.640625 0.0234375 0  0.6484375 0.0234375 0  0.65625 0.0234375 0  0.6640625 0.0234375 0  0.671875 0.0234375 0  0.6796875 0.0234375 0  0.6875 0.0234375 0  0.6953125 0.0234375 0  0.703125 0.0234375 0  0.7109375 0.0234375 0  0.71875 0.0234375 0  0.7265625 0.0234375 0  0.734375 0.0234375 0  0.7421875 0.0234375 0  0.75 0.0234375 0  0.7578125 0.0234375 0  0.765625 0.0234375 0  0.7734375 0.0234375 0  0.78125 0.0234375 0  0.7890625 0.0234375 0  0.796875 0.0234375 0  0.8046875 0.0234375 0  0.8125 0.0234375 0  0.8203125 0.0234375 0  0.828125 0.0234375 0  0.8359375 0.0234375 0  0.84375 0.0234375 0  0.8515625 0.0234375 0  0.859375 0.0234375 0  0.8671
[...]
<PointData  Scalars="v_sol"> 
<DataArray  type="Float64"  Name="v_sol"  format="ascii">-1.1499206100668110e-06  -4.2289214430342729e-06  -2.9461524401759433e-06  2.0257285299099378e-06  9.1225329978521715e-06  1.7025846145939570e-05  2.4751439273517914e-05  3.1494218801968040e-05  3.6639140642023160e-05  3.9803619344527600e-05  4.0872096250233164e-05  3.9992961598234232e-05  3.7534382986571761e-05  3.4009123389118414e-05  2.9988302858332795e-05  2.6015938785562245e-05  2.2550511851631635e-05  1.9927651065021764e-05  1.8346084903037075e-05  1.7874283082241288e-05  1.8467174888748002e-05  1.9987211247962425e-05  2.2219677576041013e-05  2.4894009387277508e-05  2.7704080637526944e-05  3.0328063817732709e-05  3.2457111640325563e-05  3.3840093121109254e-05  3.4314677804989805e-05  3.3760464759019486e-05  3.1937487913358996e-05  2.8779264815936286e-05  2.4276787877084343e-05  1.8169447940386343e-05  9.4918629651460326e-06  -2.9788999494337805e-06  -2.0079461788141633e-05  -4.0856716207591568e-05  -6.6609515168362639e-05  -9.5398665583495610e-05  -1.3540641729085695e-04  -1.8314446336000303e-04  -2.3945930041679512e-04  -3.0506929656263170e-04  -3.7399389367707682e-04  -4.4699176991726611e-04  -5.2611805533979818e-04  -6.0652079572883074e-04  -6.8597946858059520e-04  -7.6089893351941832e-04  -8.2760903347344416e-04  -8.8235582501271649e-04  -9.2192166624306237e-04  -9.4387386113878584e-04  -9.4675942371040740e-04  -9.3006754080585542e-04  -8.9410108864383393e-04  -8.3976582762706022e-04  -7.6836254924898774e-04  -6.8140204691934819e-04  -5.8047180176376870e-04  -4.6715137211588803e-04  -3.4303464326095945e-04  -2.1000374900703280e-04  -7.0534357180343502e-05  8.3472558420895668e-05  2.4100806135903845e-04  3.9410341191804533e-04  5.4862557522035666e-04  6.9838677664093760e-04  8.4291139775463794e-04  9.7825557750990527e-04  1.1022848293757541e-03  1.2117823007382182e-03  1.3042075973529691e-03  1.3768313698688840e-03  1.4273458423448675e-03  1.4536552544554113e-03  1.4542011889442776e-03  1.4277295540035158e-03  1.3740830680386597e-03  1.2935114340982691e-03  1.1875044217648748e-03  1.0586558356193497e-03  9.1092677191762091e-04  7.4914506851325410e-04  5.7929747192812667e-04  4.0670633016928097e-04  2.3864941257299284e-04  7.4934843795547266e-05  -8.6387891127858663e-05  -2.1197555891929918e-04  -3.2161104376529637e-04  -4.2717599743140170e-04  -5.2070125121296649e-04  -6.0137713569054067e-04  -6.6798507995625023e-04  -7.1625521066644431e-04  -7.4049986512332165e-04  -7.3543613279373457e-04  -6.9915538061397396e-04  -6.3463695208115572e-04  -5.4984888167899275e-04  -4.5535898361677570e-04  -3.6143030168521938e-04  -2.7593243127400457e-04  -2.0281721124023203e-04  -1.4380664597611468e-04  -9.8528434640244737e-05  -6.5374245069983446e-05  -4.1648831498030516e-05  -2.5222377980216584e-05  -1.4265397301708969e-05  -7.1108812814959024e-06  -2.4351312242903993e-06  8.2768660316733288e-07  3.4562291116848065e-06  5.9732839016652232e-06  8.6512294016311180e-06  1.1541048235967678e-05  1.4502311728512064e-05  1.7236125716720043e-05  1.9325671700526183e-05  2.0282469198064556e-05  1.9591188522780546e-05  1.6796250922113260e-05  1.1617445235696219e-05  5.0531132584789755e-06  -4.7118962901237015e-08  1.9165615359735152e-06  2.6588734562686658e-05  2.0971647808282019e-05  -6.1563084929709299e-06  -4.3998941301089911e-05  -8.5912947447292848e-05  -1.2683448714151486e-04  -1.6255867152476118e-04  -1.8979516752886690e-04  -2.0646922221123816e-04  -2.1194666737333440e-04  -2.0703736184567395e-04  -1.9375259046539169e-04  -1.7488399436693889e-04  -1.5351553481783968e-04  -1.3256499646638873e-04  -1.1445927493826203e-04  -1.0094791507932385e-04  -9.3046888867448466e-05  -9.1087391787621623e-05  -9.4816058862952078e-05  -1.0350339963708135e-04  -1.1603628851800567e-04  -1.3101303670990972e-04  -1.4684426229615954e-04  -1.6187378802437794e-04  -1.7454170421016905e-04  -1.8357068466619527e-04  -1.8812779733163475e-04  -1.8772210757187058e-04  -1.8174425068102367e-04  -1.6985096406131663e-04  -1.5137423098397955e-04  -1.2488779089802070e-04  -8.7051529986691947e-05  -3.2635929413759409e-05  4.2712463338368792e-05  1.3842626252306398e-04  2.5720197949027093e-04  4.0053937920879928e-04  5.8741536820407691e-04  8.1645136711867763e-04  1.0843289299568609e-03  1.3889678042073212e-03  1.7256405777610650e-03  2.0931934159812045e-03  2.4846404641904341e-03  2.8889872908659416e-03  3.2934290646636907e-03  3.6820190280905021e-03  4.0373025410016146e-03  4.3421171854552878e-03  4.5816004064178724e-03  4.7442789948688073e-03  4.8225228357175543e-03  4.8122942328330080e-03  4.7125641013016318e-03  4.5245344770917274e-03  4.2508834699412357e-03  3.8951091146183351e-03  3.4610548508136217e-03  2.9526220058775439e-03  2.3735846005801180e-03  1.7272431091888403e-03  1.0169572652900464e-03  2.4935212782370778e-04  -5.6970194145737065e-04  -1.4345082004103592e-03  -2.3334143814493749e-03  -3.2525463247588355e-03  -4.1762579514840643e-03  -5.0827871719362257e-03  -5.9479421421881409e-03  -6.7426010581075309e-03  -7.4359128182557941e-03  -7.9956120740987541e-03  -8.3913175253002639e-03  -8.5968523322337894e-03  -8.5935273991112823e-03  -8.3731761599122861e-03  -7.9396337346590330e-03  -7.3082305312673190e-03  -6.5099834290822207e-03  -5.5827535520170009e-03  -4.5725249802695380e-03  -3.5266209963378207e-03  -2.4889761512267975e-03  -1.4968324475849956e-03  -5.7642008830185683e-04  2.5278275652000024e-04  9.9481279128656045e-04  1.6320805791954233e-03  2.1685571717473965e-03  2.6403856263672821e-03  3.0526395716818154e-03  3.3975252610810775e-03  3.6645350071332666e-03  3.8344414613949666e-03  3.8825523593472976e-03  3.7883872367441020e-03  3.5477316565256361e-03  3.1792872482242270e-03  2.7235889087957456e-03  2.2322289625581345e-03  1.7539554679287109e-03  1.3245883966608689e-03  9.6341583534702193e-04  6.7534384280903200e-04  4.5617585966045568e-04  2.9653807195346201e-04  1.8386396887040105e-04  1.0700172569060334e-04  5.6628881788384593e-05  2.4540571781930656e-05  4.1029410456701164e-06  -9.9448286491204939e-06  -2.1486233278082463e-05  -3.3084145040027383e-05  -4.6046347834838934e-05  -6.0547487945181061e-05  -7.5773258854044612e-05  -9.0087389471675308e-05  -1.0123296997736722e-04  -1.0655979756456953e-04  -1.0326693819500176e-04  -8.8652221087961704e-05  -6.0719416364488364e-05  -2.1292004942342551e-05  6.4061526582241586e-06  1.1667116190446614e-05  7.2884511899325434e-05  3.5415600690317446e-05  -7.3302578051998382e-05  -2.2154418215582100e-04  -3.8472358576784564e-04  -5.4293797589738846e-04  -6.7983592959354304e-04  -7.8307470013535586e-04  -8.4522539630634431e-04  -8.6433729773563775e-04  -8.4375217899318054e-04  -7.9113140943082945e-04  -7.1692160352042019e-04  -6.3262039786670732e-04  -5.4918494286230167e-04  -4.7579641336321400e-04  -4.1912809468412214e-04  -3.8308877459553080e-04  -3.6891564095169660e-04  -3.7548195489991011e-04  -3.9966369521383997e-04  -4.3671102343730836e-04  -4.8060659535064651e-04  -5.2446032976481618e-04  -5.6100908563431649e-04  -5.8326541452362833e-04  -5.8496464303475749e-04  -5.6065231131640703e-04  -5.0629232037191594e-04  -4.1906594308221859e-04  -2.9354865218697259e-04  -1.1977696889862104e-04  1.1406314131121336e-04  4.1689229033059646e-04  8.0320051436235968e-04  1.2953266533355600e-03  1.9186452976642408e-03  2.6765676629082937e-03  3.5762828610218221e-03  4.6287023818068441e-03  5.8361942129406923e-03  7.1808378403033024e-03  8.6307418749985952e-03  1.0140596791553685e-02  1.1662303088664941e-02  1.3139349898021485e-02  1.4504513885255907e-02  1.5697192502042552e-02  1.6664483686191701e-02  1.7365090274149491e-02  1.7771429489056193e-02  1.7869981401166544e-02  1.7660108316645756e-02  1.7151654797922366e-02  1.6362040369361838e-02  1.5313275052711597e-02  1.4029344938796966e-02  1.2534146554657899e-02  1.0850082857527641e-02  8.9972882165735169e-03  6.9934279247499563e-03  4.8540309624585873e-03  2.5935573404867857e-03  2.2644101358256492e-04  -2.2359592820273260e-03  -4.7705354814564626e-03  -7.3570495674458759e-03  -9.9760252427556918e-03  -1.2595333427947625e-02  -1.5177955540196440e-02  -1.7677018253545035e-02  -2.0037599116132940e-02  -2.2196873117430745e-02  -2.4086134592123363e-02  -2.5634353005503003e-02  -2.6772454774938309e-02  -2.7439349489272364e-02  -2.7587971482728797e-02  -2.7191470455071448e-02  -2.6248122632163046e-02  -2.4782898235699517e-02  -2.2849837696966864e-02  -2.0525739686631649e-02  -1.7906000333793571e-02  -1.5095763499480780e-02  -1.2198225877590294e-02  -9.3074632923255043e-03  -6.5020807657674975e-03  -3.8323081603014526e-03  -1.3253380171099809e-03  9.9583422171765348e-04  3.1376007401079796e-03  5.1134785950690820e-03  6.9502570323704419e-03  8.6586252542219331e-03  1.0211801383579491e-02  1.1543315261968097e-02  1.2551298506566291e-02  1.3116913689755845e-02  1.3137209140933644e-02  1.2569782237381527e-02  1.1463617838412940e-02  9.9594943123502370e-03  8.2543930297217967e-03  6.5462002115732817e-03  4.9865921616758018e-03  3.6631219601880177e-03  2.6035054716267055e-03  1.7939022558352427e-03  1.1991885802544631e-03  7.7707878241910873e-04  4.8545038786649663e-04  2.8767965464103560e-04  1.5301393981805687e-04  5.6961692076981538e-05  -1.8763273730389680e-05  -8.6558847246888837e-05  -1.5336369318421682e-04  -2.2124292077664506e-04  -2.8811139414221487e-04  -3.4853069337617489e-04  -3.9460497010383559e-04  -4.1698673379300606e-04  -4.0601819166711178e-04  -3.5323981420768953e-04  -2.5436071412185120e-04  -1.1921538965150380e-04  7.2671927675021798e-06  2.0696380045452204e-05  9.1567782465512386e-05  -1.1755197541159017e-05  -2.4152427394052455e-04  -5.4318422970940335e-04  -8.7042603381436200e-04  -1.1838011019046695e-03  -1.4510050480196304e-03  -1.6483684558471880e-03  -1.7624674934192174e-03  -1.7907888521709249e-03  -1.7409724534138569e-03  -1.6286935048713716e-03  -1.4746331081986381e-03  -1.3011769463156294e-03  -1.1294289598830054e-03  -9.7693233815747318e-04  -8.5629391545033256e-04  -7.7464211429169414e-04  -7.3374630667377304e-04  -7.3052515629817350e-04  -7.5770052752776489e-04  -8.0448600931449675e-04  -8.5728455012123929e-04  -9.0054028899340345e-04  -9.1751036436818001e-04  -8.9109463722242233e-04  -8.0586517829952544e-04  -6.4866905056395324e-04  -4.0487329125578949e-04  -5.7318892398493070e-05  4.0843417633842932e-04  1.0123968808858194e-03  1.7892020357682221e-03  2.7810290796487489e-03  4.0145645552980757e-03  5.5214037199418807e-03  7.3340130742974964e-03  9.4650656946764604e-03  1.1899012903803026e-02  1.4592325095150158e-02  1.7490984404881314e-02  2.0500569127257482e-02  2.3497883889151170e-02  2.6353537958632177e-02  2.8934783231416086e-02  3.1122909940459357e-02  3.2825548263707642e-02  3.3979663746250499e-02  3.4555516424726061e-02  3.4552745129673851e-02  3.3995330841749549e-02  3.2924522355567643e-02  3.1392152761225256e-02  2.9454515148250884e-02  2.7167568715578804e-02  2.4583420344456389e-02  2.1748129749206379e-02  1.8700599668046904e-02  1.5472370690511271e-02  1.2088082489559492e-02  8.5664398314194319e-03  4.9215573935061374e-03  1.1646572302591110e-03  -2.6936049740659230e-03  -6.6382306065187200e-03  -1.0659454759577384e-02  -1.4742480510449140e-02  -1.8858018028696372e-02  -2.2973009174689297e-02  -2.7038825373765195e-02  -3.0995916820948835e-02  -3.4769109721478265e-02  -3.8270578731868822e-02  -4.1400455988480744e-02  -4.4051834318747478e-02  -4.6116605385517408e-02  -4.7494033043781365e-02  -4.8100476141033612e-02  -4.7879570633873145e-02  -4.6811090437456529e-02  -4.4917520401949580e-02  -4.2264542258305185e-02  -3.8958298418577536e-02  -3.5135330967272733e-02  -3.0949797313020229e-02  -2.6556785706179038e-02  -2.2099196448585608e-02  -1.7693904205296693e-02  -1.3427124199088859e-02  -9.3520239049870117e-03  -5.4550560099556975e-03  -1.7221255718310397e-03  1.8732169584671251e-03  5.3743213485688088e-03  8.8136446805260945e-03  1.2187167752072238e-02  1.5428554832293186e-02  1.8385625032439758e-02  2.0821133833932359e-02  2.2455581321654552e-02  2.3036763383849277e-02  2.2434853753869340e-02  2.0714899637026996e-02  1.8142876857161108e-02  1.5111423868617255e-02  1.2022155946697527e-02  9.1850407712001161e-03  6.7757513184585746e-03  4.8492953810307894e-03  3.3800481688134147e-03  2.3005404574158658e-03  1.5298858459875124e-03  9.8882916521156219e-04  6.0829256536869183e-04  3.3221641532737718e-04  1.1796230862141574e-04  -6.4022729476062446e-05  -2.3138278893424931e-04  -3.9123891295175583e-04  -5.4184198150988416e-04  -6.7441245886141923e-04  -7.7510544024092163e-04  -8.2718246939251095e-04  -8.1350188754179093e-04  -7.1972200273899567e-04  -5.3957906213093277e-04  -2.8500844593949107e-04  1.5447737739043884e-06  2.7989907086904693e-05  6.3585408379140192e-05  -1.4457252382225777e-04  -5.3346902068772254e-04  -1.0236454487382038e-03  -1.5443678833522523e-03  -2.0338393630304629e-03  -2.4417324116852517e-03  -2.7324205897961622e-03  -2.8873825253148194e-03  -2.9057016182250563e-03  -2.8021657580467453e-03  -2.6033957690118682e-03  -2.3428313905987596e-03  -2.0555343402477808e-03  -1.7736699660749764e-03  -1.5232092034424634e-03  -1.3220060547313240e-03  -1.1790978115831061e-03  -1.0949148078711966e-03  -1.0620126690808623e-03  -1.0660376130435464e-03  -1.0867660213975832e-03  -1.0989589951749745e-03  -1.0732780617574284e-03  -9.7878544344708767e-04  -7.8430145770266532e-04  -4.5626149329166328e-04  3.7742142541473293e-05  7.2479349174834630e-04  1.6397340266460067e-03  2.8324060269345223e-03  4.3503987869828401e-03  6.2453617179176919e-03  8.5803807563949626e-03  1.1403338357415803e-02  1.4725685265519210e-02  1.8528996380722095e-02  2.2761531871237615e-02  2.7305146383863187e-02  3.1999424836442358e-02  3.6640305031706726e-02  4.1012195899239851e-02  4.4909030110289017e-02  4.8155861119593628e-02  5.0628195088800648e-02  5.2257090927944699e-02  5.3026098253103386e-02  5.2963334385515773e-02  5.2129180400965446e-02  5.0604181848714319e-02  4.8477922052520946e-02  4.5840465817152017e-02  4.2776199916915260e-02  3.9360077532491364e-02  3.5655669132888396e-02  3.1714633071491999e-02  2.7577103788390418e-02  2.3272698332777498e-02  1.8821866610210781e-02  1.4237449577021373e-02  9.5263432517448555e-03  4.6912320369487193e-03  -2.6772330032290938e-04  -5.3515784982388140e-03  -1.0559189340545477e-02  -1.5882708171610690e-02  -2.1306202181374936e-02  -2.6808456943129992e-02  -3.2352149012862562e-02  -3.7886857067294458e-02  -4.3342200742816472e-02  -4.8628921763498888e-02  -5.3636128790031393e-02  -5.8234001989325337e-02  -6.2276579205402471e-02  -6.5609310759158504e-02  -6.8078846502508616e-02  -6.9546583610463369e-02  -6.9903794546713180e-02  -6.9087229682629953e-02  -6.7091893292832924e-02  -6.3979192474668004e-02  -5.9876180932698281e-02  -5.4966502196128100e-02  -4.9471448258121081e-02  -4.3626574100240276e-02  -3.7654801767663622e-02  -3.1743725580799485e-02  -2.6031394843783921e-02  -2.0592562117096553e-02  -1.5458458821631887e-02  -1.0577600641889690e-02  -5.8488025292769523e-03  -1.1754159580824098e-03  3.5407384674523991e-03  8.3757441084772472e-03  1.3328130291400458e-02  1.8284739549231332e-02  2.2994088810678291e-02  2.7055288060029884e-02  2.9989452421286998e-02  3.1360337346083227e-02  3.0930743407179977e-02  2.8780775632038555e-02  2.5312896614327552e-02  2.1126853667675676e-02  1.6829557018487772e-02  1.2881336549701129e-02  9.5373351156880053e-03  6.8715991340158990e-03  4.8409803143884111e-03  3.3447548160374673e-03  2.2645546108157402e-03  1.4871607262326926e-03  9.1602307546966607e-04  4.7583641528486616e-04  1.1268315640190406e-04  -2.0725153672348926e-04  -5.0021117642955713e-04  -7.6764768100698680e-04  -9.9931525470422101e-04  -1.1765633818381041e-03  -1.2758542046695876e-03  -1.2726760863254359e-03  -1.1461673153265704e-03  -8.8496674614167627e-04  -4.9412638779168592e-04  -6.2205334358369273e-06  3.4421763882973851e-05  -1.8558756479983795e-05  -3.7835249351773789e-04  -9.6767728610731537e-04  -1.6805932178405199e-03  -2.4187082917623759e-03  -3.0951022482202978e-03  -3.6400127078242773e-03  -4.0063418440952842e-03  -4.1729887295469817e-03  -4.1445249792891039e-03  -3.9474936934934994e-03  -3.6237422418630241e-03  -3.2226838858813670e-03  -2.7937501462128801e-03  -2.3802885744894633e-03  -2.0153941606400202e-03  -1.7197263013199562e-03  -1.5009138322588922e-03  -1.3540856747151673e-03  -1.2629985488900976e-03  -1.2011457987761837e-03  -1.1328452590794237e-03  -1.0153682783948645e-03  -8.0031170304819220e-04  -4.3228808760397379e-04  1.4526424535509712e-04  9.8462230955643961e-04  2.1458520500054175e-03  3.6956813226284853e-03  5.6953363997022562e-03  8.2210778359341919e-03  1.1356839314658980e-02  1.5164517606798166e-02  1.9674021922386289e-02  2.4877556347014877e-02  3.0689001752884307e-02  3.6943893848735192e-02  4.3400213660360454e-02  4.9769572394778201e-02  5.5742642176503758e-02  6.1037638503885085e-02  6.5429116091527115e-02  6.8768465492142286e-02  7.0988134721664084e-02  7.2092552988602551e-02  7.2141762820546379e-02  7.1232790921706202e-02  6.9481687945582779e-02  6.7009566160254691e-02  6.3932520491790740e-02  6.0355589408095510e-02  5.6369739909204880e-02  5.2051062012682142e-02  4.7461250944645761e-02  4.2648783854251131e-02  3.7650348228972064e-02  3.2492315257437961e-02  2.7192151684646969e-02  2.1759765654482500e-02  1.6198806980909856e-02  1.0507964251576598e-02  4.6822767320857358e-03  -1.2855342327608823e-03  -7.4030325847400918e-03  -1.3673090268981091e-02  -2.0097680093457235e-02  -2.6672011138029812e-02  -3.3380536223536539e-02  -4.0195470047301937e-02  -4.7071112666025698e-02  -5.3941445927834814e-02  -6.0715458459695740e-02  -6.7275374445036354e-02  -7.3474911824799163e-02  -7.9141283723028616e-02  -8.4079768320836190e-02  -8.8083316601459280e-02  -9.0946441351833163e-02  -9.2483960912275842e-02  -9.2552584651072495e-02  -9.1073261825077065e-02  -8.8049897412645461e-02  -8.3580854953658953e-02  -7.7858356917464094e-02  -7.1154411340942636e-02  -6.3792606672908869e-02  -5.6111229845539894e-02  -4.8423058802794842e-02  -4.0980394285909175e-02  -3.3953336716089418e-02  -2.7411423098285283e-02  -2.1344007596681678e-02  -1.5657472754492814e-02  -1.0181558776733657e-02  -4.7197502283947050e-03  9.1444270364033221e-04  6.8634214565924312e-03  1.3149028890723733e-02  1.9611413150047535e-02  2.5888910454743265e-02  3.1407587353079233e-02  3.5487262279631011e-02  3.7525546347888565e-02  3.7214559059065733e-02  3.4687642670686823e-02  3.0499164460891858e-02  2.5435362960672524e-02  2.0261620155796668e-02  1.5536275576673499e-02  1.1553957385961581e-02  8.3882794737619656e-03  5.9737057529458152e-03  4.1796315252089202e-03  2.8594785644452739e-03  1.8771093876815963e-03  1.1205401007674965e-03  5.0659177291821806e-04  -1.9745612837303177e-05  -4.8800233837757013e-04  -9.0625005997658310e-04  -1.2653922542110354e-03  -1.5437876411795782e-03  -1.7120968782001827e-03  -1.7384479097193595e-03  -1.5939736639080937e-03  -1.2584567094961815e-03  -7.2492344138652936e-04  -1.5037319092617545e-05  4.0809467210397820e-05  -1.5906204591253201e-04  -7.2582818614539747e-04  -1.5643546784299084e-03  -2.5379393307141842e-03  -3.5158998850737260e-03  -4.3826131350476784e-03  -5.0476421533279621e-03  -5.4542570140215171e-03  -5.5832804144240909e-03  -5.4512763707389219e-03  -5.1034122560869553e-03  -4.6027129073267321e-03  -4.0185031801143502e-03  -3.4160697450501673e-03  -2.8489982592138832e-03  -2.3544947857916648e-03  -1.9513666049157008e-03  -1.6400646995108133e-03  -1.4036572085516894e-03  -1.2092814550032423e-03  -1.0103863359657941e-03  -7.4829051986999317e-04  -3.5141988087499329e-04  2.6038933050029144e-04  1.1691013084990233e-03  2.4668178070664892e-03  4.2502319604307030e-03  6.6086973327188301e-03  9.6439770087920432e-03  1.3458440142000257e-02  1.8133378578712226e-02  2.3726990768629358e-02  3.0237898987507457e-02  3.7567397611928267e-02  4.5505411124756555e-02  5.3741874189764671e-02  6.1892239789804709e-02 