<?xml version="1.0"?>
<VTKFile type="UnstructuredGrid"  version="0.1"  >
<UnstructuredGrid>
<Piece  NumberOfPoints="16641" NumberOfCells="16384">
<Points>
<DataArray  type="Float64"  NumberOfComponents="3"  format="ascii">0 0 0  0.0078125 0 0  0.015625 0 0  0.0234375 0 0  0.03125 0 0  0.0390625 0 0  0.046875 0 0  0.0546875 0 0  0.0625 0 0  0.0703125 0 0  0.078125 0 0  0.0859375 0 0  0.09375 0 0  0.1015625 0 0  0.109375 0 0  0.1171875 0 0  0.125 0 0  0.1328125 0 0  0.140625 0 0  0.1484375 0 0  0.15625 0 0  0.1640625 0 0  0.171875 0 0  0.1796875 0 0  0.1875 0 0  0.1953125 0 0  0.203125 0 0  0.2109375 0 0  0.21875 0 0  0.2265625 0 0  0.234375 0 0  0.2421875 0 0  0.25 0 0  0.2578125 0 0  0.265625 0 0  0.2734375 0 0  0.28125 0 0  0.2890625 0 0  0.296875 0 0  0.3046875 0 0  0.3125 0 0  0.3203125 0 0  0.328125 0 0  0.3359375 0 0  0.34375 0 0  0.3515625 0 0  0.359375 0 0  0.3671875 0 0  0.375 0 0  0.3828125 0 0  0.390625 0 0  0.3984375 0 0  0.40625 0 0  0.4140625 0 0  0.421875 0 0  0.4296875 0 0  0.4375 0 0  0.4453125 0 0  0.453125 0 0  0.4609375 0 0  0.46875 0 0  0.4765625 0 0  0.484375 0 0  0.4921875 0 0  0.5 0 0  0.5078125 0 0  0.515625 0 0  0.5234375 0 0  0.53125 0 0  0.5390625 0 0  0.546875 0 0  0.5546875 0 0  0.5625 0 0  0.5703125 0 0  0.578125 0 0  0.5859375 0 0  0.59375 0 0  0.6015625 0 0  0.609375 0 0  0.6171875 0 0  0.625 0 0  0.6328125 0 0  0.640625 0 0  0.6484375 0 0  0.65625 0 0  0.6640625 0 0  0.671875 0 0  0.6796875 0 0  0.6875 0 0  0.6953125 0 0  0.703125 0 0  0.7109375 0 0  0.71875 0 0  0.7265625 0 0  0.734375 0 0  0.7421875 0 0  0.75 0 0  0.7578125 0 0  0.765625 0 0  0.7734375 0 0  0.78125 0 0  0.7890625 0 0  0.796875 0 0  0.8046875 0 0  0.8125 0 0  0.8203125 0 0  0.828125 0 0  0.8359375 0 0  0.84375 0 0  0.8515625 0 0  0.859375 0 0  0.8671875 0 0  0.875 0 0  0.8828125 0 0  0.890625 0 0  0.8984375 0 0  0.90625 0 0  0.9140625 0 0  0.921875 0 0  0.9296875 0 0  0.9375 0 0  0.9453125 0 0  0.953125 0 0  0.9609375 0 0  0.96875 0 0  0.9765625 0 0  0.984375 0 0  0.9921875 0 0  1 0 0  0 0.0078125 0  0.0078125 0.0078125 0  0.015625 0.0078125 0  0.0234375 0.0078125 0  0.03125 0.0078125 0  0.0390625 0.0078125 0  0.046875 0.0078125 0  0.0546875 0.0078125 0  0.0625 0.0078125 0  0.0703125 0.0078125 0  0.078125 0.0078125 0  0.0859375 0.0078125 0  0.09375 0.0078125 0  0.1015625 0.0078125 0  0.109375 0.0078125 0  0.1171875 0.0078125 0  0.125 0.0078125 0  0.1328125 0.0078125 0  0.140625 0.0078125 0  0.1484375 0.0078125 0  0.15625 0.0078125 0  0.1640625 0.0078125 0  0.171875 0.0078125 0  0.1796875 0.0078125 0  0.1875 0.0078125 0  0.1953125 0.0078125 0  0.203125 0.0078125 0  0.2109375 0.0078125 0  0.21875 0.0078125 0  0.2265625 0.0078125 0  0.234375 0.0078125 0  0.2421875 0.0078125 0  0.25 0.0078125 0  0.2578125 0.0078125 0  0.265625 0.0078125 0  0.2734375 0.0078125 0  0.28125 0.0078125 0  0.2890625 0.0078125 0  0.296875 0.0078125 0  0.3046875 0.0078125 0  0.3125 0.0078125 0  0.3203125 0.0078125 0  0.328125 0.0078125 0  0.3359375 0.0078125 0  0.34375 0.0078125 0  0.3515625 0.0078125 0  0.359375 0.0078125 0  0.3671875 0.0078125 0  0.375 0.0078125 0  0.3828125 0.0078125 0  0.390625 0.0078125 0  0.3984375 0.0078125 0  0.40625 0.0078125 0  0.4140625 0.0078125 0  0.421875 0.0078125 0  0.4296875 0.0078125 0  0.4375 0.0078125 0  0.4453125 0.0078125 0  0.453125 0.0078125 0  0.4609375 0.0078125 0  0.46875 0.0078125 0  0.4765625 0.0078125 0  0.484375 0.0078125 0  0.4921875 0.0078125 0  0.5 0.0078125 0  0.5078125 0.0078125 0  0.515625 0.0078125 0  0.5234375 0.0078125 0  0.53125 0.0078125 0  0.5390625 0.0078125 0  0.546875 0.0078125 0  0.5546875 0.0078125 0  0.5625 0.0078125 0  0.5703125 0.0078125 0  0.578125 0.0078125 0  0.5859375 0.0078125 0  0.59375 0.0078125 0  0.6015625 0.0078125 0  0.609375 0.0078125 0  0.6171875 0.0078125 0  0.625 0.0078125 0  0.6328125 0.0078125 0  0.640625 0.0078125 0  0.6484375 0.0078125 0  0.65625 0.0078125 0  0.6640625 0.0078125 0  0.671875 0.0078125 0  0.6796875 0.0078125 0  0.6875 0.0078125 0  0.6953125 0.0078125 0  0.703125 0.0078125 0  0.7109375 0.0078125 0  0.71875 0.0078125 0  0.7265625 0.0078125 0  0.734375 0.0078125 0  0.7421875 0.0078125 0  0.75 0.0078125 0  0.7578125 0.0078125 0  0.765625 0.0078125 0  0.7734375 0.0078125 0  0.78125 0.0078125 0  0.7890625 0.0078125 0  0.796875 0.0078125 0  0.8046875 0.0078125 0  0.8125 0.0078125 0  0.8203125 0.0078125 0  0.828125 0.0078125 0  0.8359375 0.0078125 0  0.84375 0.0078125 0  0.8515625 0.0078125 0  0.859375 0.0078125 0  0.8671875 0.0078125 0  0.875 0.0078125 0  0.8828125 0.0078125 0  0.890625 0.0078125 0  0.8984375 0.0078125 0  0.90625 0.0078125 0  0.9140625 0.0078125 0  0.921875 0.0078125 0  0.9296875 0.0078125 0  0.9375 0.0078125 0  0.9453125 0.0078125 0  0.953125 0.0078125 0  0.9609375 0.0078125 0  0.96875 0.0078125 0  0.9765625 0.0078125 0  0.984375 0.0078125 0  0.9921875 0.0078125 0  1 0.0078125 0  0 0.015625 0  0.0078125 0.015625 0  0.015625 0.015625 0  0.0234375 0.015625 0  0.03125 0.015625 0  0.0390625 0.015625 0  0.046875 0.015625 0  0.0546875 0.015625 0  0.0625 0.015625 0  0.0703125 0.015625 0  0.078125 0.015625 0  0.0859375 0.015625 0  0.09375 0.015625 0  0.1015625 0.015625 0  0.109375 0.015625 0  0.1171875 0.015625 0  0.125 0.015625 0  0.1328125 0.015625 0  0.140625 0.015625 0  0.1484375 0.015625 0  0.15625 0.015625 0  0.1640625 0.015625 0  0.171875 0.015625 0  0.1796875 0.015625 0  0.1875 0.015625 0  0.1953125 0.015625 0  0.203125 0.015625 0  0.2109375 0.015625 0  0.21875 0.015625 0  0.2265625 0.015625 0  0.234375 0.015625 0  0.2421875 0.015625 0  0.25 0.015625 0  0.2578125 0.015625 0  0.265625 0.015625 0  0.2734375 0.015625 0  0.28125 0.015625 0  0.2890625 0.015625 0  0.296875 0.015625 0  0.3046875 0.015625 0  0.3125 0.015625 0  0.3203125 0.015625 0  0.328125 0.015625 0  0.3359375 0.015625 0  0.34375 0.015625 0  0.3515625 0.015625 0  0.359375 0.015625 0  0.3671875 0.015625 0  0.375 0.015625 0  0.3828125 0.015625 0  0.390625 0.015625 0  0.3984375 0.015625 0  0.40625 0.015625 0  0.4140625 0.015625 0  0.421875 0.015625 0  0.4296875 0.015625 0  0.4375 0.015625 0  0.4453125 0.015625 0  0.453125 0.015625 0  0.4609375 0.015625 0  0.46875 0.015625 0  0.4765625 0.015625 0  0.484375 0.015625 0  0.4921875 0.015625 0  0.5 0.015625 0  0.5078125 0.015625 0  0.515625 0.015625 0  0.5234375 0.015625 0  0.53125 0.015625 0  0.5390625 0.015625 0  0.546875 0.015625 0  0.5546875 0.015625 0  0.5625 0.015625 0  0.5703125 0.015625 0  0.578125 0.015625 0  0.5859375 0.015625 0  0.59375 0.015625 0  0.6015625 0.015625 0  0.609375 0.015625 0  0.6171875 0.015625 0  0.625 0.015625 0  0.6328125 0.015625 0  0.640625 0.015625 0  0.6484375 0.015625 0  0.65625 0.015625 0  0.6640625 0.015625 0  0.671875 0.015625 0  0.6796875 0.015625 0  0.6875 0.015625 0  0.6953125 0.015625 0  0.703125 0.015625 0  0.7109375 0.015625 0  0.71875 0.015625 0  0.7265625 0.015625 0  0.734375 0.015625 0  0.7421875 0.015625 0  0.75 0.015625 0  0.7578125 0.015625 0  0.765625 0.015625 0  0.7734375 0.015625 0  0.78125 0.015625 0  0.7890625 0.015625 0  0.796875 0.015625 0  0.8046875 0.015625 0  0.8125 0.015625 0  0.8203125 0.015625 0  0.828125 0.015625 0  0.8359375 0.015625 0  0.84375 0.015625 0  0.8515625 0.015625 0  0.859375 0.015625 0  0.8671875 0.015625 0  0.875 0.015625 0  0.8828125 0.015625 0  0.890625 0.015625 0  0.8984375 0.015625 0  0.90625 0.015625 0  0.9140625 0.015625 0  0.921875 0.015625 0  0.9296875 0.015625 0  0.9375 0.015625 0  0.9453125 0.015625 0  0.953125 0.015625 0  0.9609375 0.015625 0  0.96875 0.015625 0  0.9765625 0.015625 0  0.984375 0.015625 0  0.9921875 0.015625 0  1 0.015625 0  0 0.0234375 0  0.0078125 0.0234375 0  0.015625 0.0234375 0  0.0234375 0.0234375 0  0.03125 0.0234375 0  0.0390625 0.0234375 0  0.046875 0.0234375 0  0.0546875 0.0234375 0  0.0625 0.0234375 0  0.0703125 0.0234375 0  0.078125 0.0234375 0  0.0859375 0.0234375 0  0.09375 0.0234375 0  0.1015625 0.0234375 0  0.109375 0.0234375 0  0.1171875 0.0234375 0  0.125 0.0234375 0  0.1328125 0.0234375 0  0.140625 0.0234375 0  0.1484375 0.0234375 0  0.15625 0.0234375 0  0.1640625 0.0234375 0  0.171875 0.0234375 0  0.1796875 0.0234375 0  0.1875 0.0234375 0  0.1953125 0.0234375 0  0.203125 0.0234375 0  0.2109375 0.0234375 0  0.21875 0.0234375 0  0.2265625 0.0234375 0  0.234375 0.0234375 0  0.2421875 0.0234375 0  0.25 0.0234375 0  0.2578125 0.0234375 0  0.265625 0.0234375 0  0.2734375 0.0234375 0  0.28125 0.0234375 0  0.2890625 0.0234375 0  0.296875 0.0234375 0  0.3046875 0.0234375 0  0.3125 0.0234375 0  0.3203125 0.0234375 0  0.328125 0.0234375 0  0.3359375 0.0234375 0  0.34375 0.0234375 0  0.3515625 0.0234375 0  0.359375 0.0234375 0  0.3671875 0.0234375 0  0.375 0.0234375 0  0.3828125 0.0234375 0  0.390625 0.0234375 0  0.3984375 0.0234375 0  0.40625 0.0234375 0  0.4140625 0.0234375 0  0.421875 0.0234375 0  0.4296875 0.0234375 0  0.4375 0.0234375 0  0.4453125 0.0234375 0  0.453125 0.0234375 0  0.4609375 0.0234375 0  0.46875 0.0234375 0  0.4765625 0.0234375 0  0.484375 0.0234375 0  0.4921875 0.0234375 0  0.5 0.0234375 0  0.5078125 0.0234375 0  0.515625 0.0234375 0  0.5234375 0.0234375 0  0.53125 0.0234375 0  0.5390625 0.0234375 0  0.546875 0.0234375 0  0.5546875 0.0234375 0  0.5625 0.0234375 0  0.5703125 0.0234375 0  0.578125 0.0234375 0  0.5859375 0.0234375 0  0.59375 0.0234375 0  0.6015625 0.0234375 0  0.609375 0.0234375 0  0.6171875 0.0234375 0  0.625 0.0234375 0  0.6328125 0.0234375 0  0.640625 0.0234375 0  0.6484375 0.0234375 0  0.65625 0.0234375 0  0.6640625 0.0234375 0  0.671875 0.0234375 0  0.6796875 0.0234375 0  0.6875 0.0234375 0  0.6953125 0.0234375 0  0.703125 0.0234375 0  0.7109375 0.0234375 0  0.71875 0.0234375 0  0.7265625 0.0234375 0  0.734375 0.0234375 0  0.7421875 0.0234375 0  0.75 0.0234375 0  0.7578125 0.0234375 0  0.765625 0.0234375 0  0.7734375 0.0234375 0  0.78125 0.0234375 0  0.7890625 0.0234375 0  0.796875 0.0234375 0  0.8046875 0.0234375 0  0.8125 0.0234375 0  0.8203125 0.0234375 0  0.828125 0.0234375 0  0.8359375 0.0234375 0  0.84375 0.0234375 0  0.8515625 0.0234375 0  0.859375 0.0234375 0  0.8671
[...]
<PointData  Scalars="u_sol"> 
<DataArray  type="Float64"  Name="u_sol"  format="ascii">1.1443166311527546e-06  -1.0815289907603343e-05  -2.0823480216129032e-05  -1.9655369714200373e-05  -1.1880552020621076e-05  4.5819224001100712e-07  1.5336426174509941e-05  3.1225133747882297e-05  4.6796611265330965e-05  6.1015368455847807e-05  7.3164033814867620e-05  8.2872685309640635e-05  9.0106112501690588e-05  9.5119919039475350e-05  9.8393435658197537e-05  1.0055298856927095e-04  1.0229671319817257e-04  1.0432794248880086e-04  1.0730051219400553e-04  1.1177720575876406e-04  1.1819967491141190e-04  1.2687223637545858e-04  1.3795938756268379e-04  1.5149961125352881e-04  1.6743514536853558e-04  1.8565200784753747e-04  2.0602667454612628e-04  2.2846435095657074e-04  2.5292413877421751e-04  2.7942694206984606e-04  3.0804137330521855e-04  3.3885401266979683e-04  3.7192991438924771e-04  4.0728425618707047e-04  4.4484892134367862e-04  4.8444814683950411e-04  5.2578403259479259e-04  5.6842569509303967e-04  6.1183822607123852e-04  6.5529201290850990e-04  6.9794007728551997e-04  7.3870955236917779e-04  7.7635706707104726e-04  8.0967100530603814e-04  8.3712788293928376e-04  8.5714226173007530e-04  8.6817094298848139e-04  8.6862620319969172e-04  8.5695572556737784e-04  8.3157429442341942e-04  7.9131869454668368e-04  7.3532676521843204e-04  6.6289443751186780e-04  5.7372716476416456e-04  4.6791196727190168e-04  3.4597164843428520e-04  2.0887776664482249e-04  5.8062460320131914e-05  -1.0458354875723706e-04  -2.7672231169287943e-04  -4.5558897548533676e-04  -6.3802581622283906e-04  -8.2051157031858783e-04  -9.9924783085581794e-04  -1.1701352849180361e-03  -1.3290278579041550e-03  -1.4713597165167834e-03  -1.5933415277025968e-03  -1.6909638397677687e-03  -1.7596242766950133e-03  -1.7957940933933346e-03  -1.7963816930273303e-03  -1.7590449055185774e-03  -1.6823361042386726e-03  -1.5658661358094574e-03  -1.4104470880863429e-03  -1.2181955105929449e-03  -9.9258256425922148e-04  -7.3842745795325566e-04  -4.6177630083841988e-04  -1.6977525213937366e-04  1.2942090488361131e-04  4.2678862455415443e-04  7.1373254484002825e-04  9.8262872990054271e-04  1.2266706651053760e-03  1.4389405041336379e-03  1.6137715725010957e-03  1.7475420920057027e-03  1.8385361019367097e-03  1.8869318079866274e-03  1.8938673960610460e-03  1.8628429991316463e-03  1.7985917158416370e-03  1.7059912212867426e-03  1.5914045740731278e-03  1.4610943464419711e-03  1.3200920509858639e-03  1.1739897101574420e-03  1.0278222487217078e-03  8.8568566506083495e-04  7.5106389607444994e-04  6.2640089535120533e-04  5.1343920805877418e-04  4.1315153656421797e-04  3.2581258845522078e-04  2.5114275273627179e-04  1.8843901991494485e-04  1.3672406368831950e-04  9.4839964198443626e-05  6.1531073306025127e-05  3.5569639888263989e-05  1.5777877150297327e-05  1.0657012720379629e-06  -9.5445545105325826e-06  -1.6911612210674924e-05  -2.1787316717939157e-05  -2.4829153840070784e-05  -2.6606707732740000e-05  -2.7604824301957033e-05  -2.8207624425555170e-05  -2.8661564998689892e-05  -2.9014270521391455e-05  -2.9021327662057428e-05  -2.8049701619361407e-05  -2.4910444335685528e-05  -1.8089194918257383e-05  -6.1678791912015933e-06  1.3812267219374292e-06  -3.0584260955726363e-06  4.9073446769702791e-06  1.0269674610781338e-04  3.3422424522183680e-04  6.8862609174392237e-04  1.1395867703189329e-03  1.6544833034204266e-03  2.1999285820874940e-03  2.7445841061671506e-03  3.2614014857650364e-03  3.7292075360052654e-03  4.1336302452138415e-03  4.4673178488172293e-03  4.7295003667439765e-03  4.9250117212245861e-03  5.0629339591015668e-03  5.1550343618384309e-03  5.2141545720610482e-03  5.2526845383371228e-03  5.2812294206747564e-03  5.3075596275013450e-03  5.3359077228453808e-03  5.3666637379837573e-03  5.3964719783803333e-03  5.4186821650386375e-03  5.4240637671136944e-03  5.4016350570512475e-03  5.3394517095480178e-03  5.2252067719779612e-03  5.0465557901628296e-03  4.7911741039971412e-03  4.4466132133455837e-03  4.0000528932736309e-03  3.4380694267243900e-03  2.7465897566168575e-03  1.9110021680000030e-03  9.1631734309912771e-04  -2.5258318517127015e-04  -1.6104196753296877e-03  -3.1706728212925572e-03  -4.9453562644155230e-03  -6.9443226574823404e-03  -9.1749051387909689e-03  -1.1641596178226826e-02  -1.4344443276971333e-02  -1.7279107628292292e-02  -2.0436927735024094e-02  -2.3804325785889771e-02  -2.7362716284816981e-02  -3.1088511308891186e-02  -3.4953726416180449e-02  -3.8926010178307262e-02  -4.2968801058936336e-02  -4.7042045386760864e-02  -5.1102724667612107e-02  -5.5105492079759281e-02  -5.9003297643962865e-02  -6.2748022686345994e-02  -6.6291098136225760e-02  -6.9584103763276769e-02  -7.2579347613347778e-02  -7.5230425478187646e-02  -7.7492789158868994e-02  -7.9324269232029482e-02  -8.0685771277907284e-02  -8.1541569417010851e-02  -8.1860768278445462e-02  -8.1616026292538280e-02  -8.0785067968482269e-02  -7.9353314164203062e-02  -7.7312875236726947e-02  -7.4663742025895097e-02  -7.1414505061611774e-02  -6.7583007963170516e-02  -6.3196907207146449e-02  -5.8294036396676428e-02  -5.2922547856349145e-02  -4.7140763430216115e-02  -4.1016675977830722e-02  -3.4627096210914338e-02  -2.8056301333945585e-02  -2.1394358943530502e-02  -1.4735331658457005e-02  -8.1771865112578342e-03  -1.8179873037902619e-03  4.2505381007066113e-03  9.9464246680736161e-03  1.5194586566456227e-02  1.9927765597487032e-02  2.4090807790399241e-02  2.7643829336190313e-02  3.0564365425772465e-02  3.2843493087966698e-02  3.4486792545195176e-02  3.5515063430637303e-02  3.5960701723321928e-02  3.5868806442702121e-02  3.5294672307218083e-02  3.4297865597251162e-02  3.2942918266254798e-02  3.1297118715717435e-02  2.9427364717825769e-02  2.7398695039020555e-02  2.5271908063145540e-02  2.3102222812404979e-02  2.0938147691938590e-02  1.8820766048734040e-02  1.6783397635412280e-02  1.4851597664598695e-02  1.3043646484063146e-02  1.1371249232726921e-02  9.8402271827502143e-03  8.4514644730989252e-03  7.2018870394626421e-03  6.0853813774013792e-03  5.0935759890255615e-03  4.2165873237926905e-03  3.4437332469489323e-03  2.7642277209902438e-03  2.1679495151685517e-03  1.6463033773997146e-03  1.1931642545573889e-03  8.0579957918499668e-04  4.8554917193554273e-04  2.3774716999449571e-04  7.0224658915277915e-05  -1.2251168801050400e-05  -1.8303552140087277e-05  1.9048544750512306e-06  -1.2799899726569256e-05  6.1907970544825092e-05  3.1634645839268515e-04  7.7224693310982864e-04  1.4147978413695127e-03  2.2061449819954014e-03  3.0970251002794811e-03  4.0350287738876028e-03  4.9699993970893147e-03  5.8579826879933961e-03  6.6639483147653659e-03  7.3633722731103277e-03  7.9426971241272001e-03  8.3987654864541867e-03  8.7373948273908302e-03  8.9713167359674745e-03  9.1177289583917031e-03  9.1957002782980628e-03  9.2236566546077276e-03  9.2171424074102039e-03  9.1870102224947178e-03  9.1382048170283066e-03  9.0692001221000292e-03  8.9720890703359896e-03  8.8332740373338759e-03  8.6345816128182550e-03  8.3545738523674046e-03  7.9697972459731852e-03  7.4557718485274982e-03  6.7875880018170073e-03  5.9400956992870348e-03  4.8878583834039467e-03  3.6050752896478141e-03  2.0654714367010578e-03  2.4222126978824555e-04  -1.8914494273295514e-03  -4.3612214900791884e-03  -7.1908974296215128e-03  -1.0401725071606513e-02  -1.4011559648257789e-02  -1.8032287643969958e-02  -2.2469153953507966e-02  -2.7320174109896501e-02  -3.2574893835936709e-02  -3.8215432914566035e-02  -4.4215167471076858e-02  -5.0537982672350816e-02  -5.7139181900523528e-02  -6.3966076536229918e-02  -7.0958901269842528e-02  -7.8051624675090317e-02  -8.5173409952300397e-02  -9.2250118740337880e-02  -9.9205537669959959e-02  -1.0596274780566640e-01  -1.1244535363761991e-01  -1.1857860875817942e-01  -1.2429038915273644e-01  -1.2951202020165034e-01  -1.3417896132808707e-01  -1.3823136523218005e-01  -1.4161454178237540e-01  -1.4427932965799922e-01  -1.4618248858953370e-01  -1.4728681828364681e-01  -1.4756208584357439e-01  -1.4698344061717949e-01  -1.4553397363439982e-01  -1.4320643205107350e-01  -1.4000043893243330e-01  -1.3592407178799729e-01  -1.3099457759245989e-01  -1.2523861563962721e-01  -1.1869277885290722e-01  -1.1140387561499047e-01  -1.0342915534740243e-01  -9.4836335040638542e-02  -8.5703418375455767e-02  -7.6118259287007925e-02  -6.6177818814556144e-02  -5.5987213231308168e-02  -4.5658303069726569e-02  -3.5307834020061539e-02  -2.5052551389964210e-02  -1.5009778100736282e-02  -5.3012965074926604e-03  3.9504585604627478e-03  1.2638246567867517e-02  2.0672811816873780e-02  2.7975514555562724e-02  3.4475453044152171e-02  4.0112350511982670e-02  4.4848532593217708e-02  4.8665812207483845e-02  5.1561549602639110e-02  5.3552779699377641e-02  5.4671647400464825e-02  5.4967648794401434e-02  5.4508877617802896e-02  5.3371985145816286e-02  5.1642620805669094e-02  4.9414091143013775e-02  4.6782579026738928e-02  4.3844966835939907e-02  4.0695215724720873e-02  3.7421639957244700e-02  3.4104407883531279e-02  3.0813723988705528e-02  2.7608716475436418e-02  2.4536749102812273e-02  2.1633447157101891e-02  1.8923526888862896e-02  1.6421936675486061e-02  1.4135130945461625e-02  1.2062286684845203e-02  1.0196858708057113e-02  8.5280980996059359e-03  7.0424227990023508e-03  5.7248810327521459e-03  4.5606431733381326e-03  3.5365672155920182e-03  2.6427801408984101e-03  1.8740715708393679e-03  1.2307346438975996e-03  7.1812211483267708e-04  3.4411487149451633e-04  1.1210665517587310e-04  1.1646737205956531e-05  -3.4745253693104142e-06  -2.3252734465990641e-05  1.1807444022572219e-04  5.2955502571735643e-04  1.1937883970581222e-03  2.0803621138085716e-03  3.1406407669464821e-03  4.3146354201329448e-03  5.5383998924182611e-03  6.7504325888375393e-03  7.8965114468287217e-03  8.9330610947768539e-03  9.8290705460814462e-03  1.0566645096873162e-02  1.1140329742504833e-02  1.1555409025837923e-02  1.1825434160229013e-02  1.1969250153919270e-02  1.2007810374225828e-02  1.1961040041251772e-02  1.1844986349888927e-02  1.1669552316168457e-02  1.1436938434237390e-02  1.1140893094486772e-02  1.0766845912475806e-02  1.0292783846183748e-02  9.6906660490467394e-03  8.9280829184952056e-03  7.9698294252857037e-03  6.7791359620105254e-03  5.3185498064286709e-03  3.5503993242567032e-03  1.4367940107074010e-03  -1.0602388140942469e-03  -3.9778628612064191e-03  -7.3515539115993509e-03  -1.1214711268279035e-02  -1.5597044312692755e-02  -2.0521494834482269e-02  -2.6002534454094998e-02  -3.2045172699191812e-02  -3.8645320211282502e-02  -4.5787712322559883e-02  -5.3443925260128984e-02  -6.1572972943125172e-02  -7.0120574266842400e-02  -7.9020664171302393e-02  -8.8197040032609503e-02  -9.7564722786386990e-02  -1.0703212903401037e-01  -1.1650324418514273e-01  -1.2588000079656356e-01  -1.3506448157038067e-01  -1.4396094043004540e-01  -1.5247757186749050e-01  -1.6052788831896581e-01  -1.6803178327134324e-01  -1.7491624387845325e-01  -1.8111576139123020e-01  -1.8657247862068599e-01  -1.9123613173843676e-01  -1.9506384406203089e-01  -1.9801981985575842e-01  -2.0007501519376575e-01  -2.0120672823478095e-01  -2.0139852782917070e-01  -2.0063909291082488e-01  -1.9892409442934797e-01  -1.9625609237721617e-01  -1.9264155310021616e-01  -1.8809282133319111e-01  -1.8262870115006052e-01  -1.7627425002448868e-01  -1.6906155606029416e-01  -1.6103004934189180e-01  -1.5222705654426261e-01  -1.4270820753768171e-01  -1.3253779400803528e-01  -1.2178896467453806e-01  -1.1054372444534886e-01  -9.8892696442225023e-02  -8.6934536553716996e-02  -7.4775043545895009e-02  -6.2525651476738553e-02  -5.0303505888693756e-02  -3.8227781519320193e-02  -2.6413667819376117e-02  -1.4970970724022252e-02  -4.0154314405534668e-03  6.3356116289700216e-03  1.5978600701075051e-02  2.4831216559473516e-02  3.2827755921364825e-02  3.9904460511096071e-02  4.6009370041401161e-02  5.1111721963441915e-02  5.5196818896920630e-02  5.8267980138787090e-02  6.0342426168150519e-02  6.1454272623229167e-02  6.1661596132151761e-02  6.1034867463011150e-02  5.9656409886854271e-02  5.7621388833146506e-02  5.5032562293010956e-02  5.1997936165737564e-02  4.8626515918315079e-02  4.5024670024720291e-02  4.1292512082968517e-02  3.7520801240557441e-02  3.3788693302348197e-02  3.0162300749778638e-02  2.6694020957974414e-02  2.3422522404152032e-02  2.0373542995712358e-02  1.7561757146493655e-02  1.4992289651539476e-02  1.2662289896244079e-02  1.0563069242342571e-02  8.6821282946604964e-03  7.0052697551989491e-03  5.5187629706240533e-03  4.2114247260882530e-03  3.0764096506116024e-03  2.1123035387327080e-03  1.3229397865098839e-03  7.1528913981372931e-04  2.9477528594474395e-04  5.8874746897579814e-05  -1.2174038282397464e-05  -3.2045929006196964e-05  1.6361112002552311e-04  7.1034511867528599e-04  1.5567227890634313e-03  2.6504807117388482e-03  3.9286108264740176e-03  5.3203413347210635e-03  6.7525526649071747e-03  8.1558635050187865e-03  9.4695824850621300e-03  1.0645179595531093e-02  1.1648155699542884e-02  1.2458401021424441e-02  1.3069228155962601e-02  1.3485324829426165e-02  1.3719906687720830e-02  1.3791353714476333e-02  1.3719625563072844e-02  1.3522713509658767e-02  1.3213498493223513e-02  1.2797216753056312e-02  1.2269736506720192e-02  1.1616862797959529e-02  1.0814629123901616e-02  9.8304751096233937e-03  8.6249985571359503e-03  7.1539227154423062e-03  5.3700221187098114e-03  3.2245987934832274e-03  6.6824550254326062e-04  -2.3481705771572540e-03  -5.8723455668665339e-03  -9.9501053288446190e-03  -1.4624519530770555e-02  -1.9932520715916231e-02  -2.5901838548044318e-02  -3.2550326467349566e-02  -3.9885588654711548e-02  -4.7901922745057043e-02  -5.6577708866936860e-02  -6.5874042664573099e-02  -7.5735122745760761e-02  -8.6089607694608536e-02  -9.6851277776870803e-02  -1.0792165214634199e-01  -1.1919273974746038e-01  -1.3055034515239072e-01  -1.4187757416836305e-01  -1.5305811325723978e-01  -1.6397933054501240e-01  -1.7453486205575947e-01  -1.8462663970548890e-01  -1.9416629797544888e-01  -2.0307596725880286e-01  -2.1128851392925507e-01  -2.1874730809149848e-01  -2.2540563422798141e-01  -2.3122584533353463e-01  -2.3617836512897819e-01  -2.4024062753966724e-01  -2.4339602672616284e-01  -2.4563294127597837e-01  -2.4694385696643528e-01  -2.4732470609646226e-01  -2.4677413786564648e-01  -2.4529402191185437e-01  -2.4288868491191273e-01  -2.3956330323618943e-01  -2.3532579224497621e-01  -2.3018723493959098e-01  -2.2416180672531349e-01  -2.1726788827274851e-01  -2.0952859386353601e-01  -2.0097275819725074e-01  -1.9163576880048758e-01  -1.8156047221234370e-01  -1.7079796210037149e-01  -1.5940824010453827e-01  -1.4746065335932396e-01  -1.3503403642005035e-01  -1.2221650656403754e-01  -1.0910482688252204e-01  -9.5803571356894116e-02  -8.2423012092033954e-02  -6.9077465876262734e-02  -5.5884365631542053e-02  -4.2963293533700320e-02  -3.0426837415809180e-02  -1.8379843577466467e-02  -6.9238539171406393e-03  3.8401929746420100e-03  1.3818854066794960e-02  2.2941336470051414e-02  3.1151498642542779e-02  3.8399518990757484e-02  4.4646520060321333e-02  4.9867017189703752e-02  5.4052954174024281e-02  5.7207884739597925e-02  5.9347075093510768e-02  6.0510209556441048e-02  6.0752492150630721e-02  6.0142063192989280e-02  5.8763314516326035e-02  5.6712385487266835e-02  5.4095217327158093e-02  5.1023421372754736e-02  4.7610162338473677e-02  4.3965830123484768e-02  4.0193995592887395e-02  3.6388006081110036e-02  3.2628417784158599e-02  2.8981609050233309e-02  2.5499394201528108e-02  2.2218882717761512e-02  1.9163990177766786e-02  1.6347555059223019e-02  1.3772982487571134e-02  1.1436633700317035e-02  9.3303910506271747e-03  7.4442298153534776e-03  5.7687761783639406e-03  4.2975705113830710e-03  3.0287509173105901e-03  1.9657937258025092e-03  1.1170403491552871e-03  4.9416508905428020e-04  1.0989458873384522e-04  -2.1805830071169906e-05  -3.9116333064922020e-05  1.9944711744908377e-04  8.5786502708303132e-04  1.8585490139902338e-03  3.1267358253607232e-03  4.5822233198801353e-03  6.1415020303411316e-03  7.7219687519627473e-03  9.2474007537642518e-03  1.0652559815869664e-02  1.1886322177257344e-02  1.2913094471770342e-02  1.3712623490261696e-02  1.4278444632286814e-02  1.4615284760556898e-02  1.4735719826247823e-02  1.4656421250030480e-02  1.4394214814910621e-02  1.3962329326095249e-02  1.3367122474591727e-02  1.2605493965052611e-02  1.1663322755556859e-02  1.0515060639319075e-02  9.1244553285521005e-03  7.4461941229706959e-03  5.4282042161529530e-03  3.0139791104293254e-03  1.4445406666609641e-04  -3.2398960283502145e-03  -7.1972506924520251e-03  -1.1784110180212422e-02  -1.7053083733312966e-02  -2.3048676355580874e-02  -2.9805248445054010e-02  -3.7347122187005123e-02  -4.5685566041665973e-02  -5.4814101090731572e-02  -6.4705949553675632e-02  -7.5313781720547049e-02  -8.6569894920608542e-02  -9.8386866482965143e-02  -1.1065990202420412e-01  -1.2327002861857501e-01  -1.3608845808764355e-01  -1.4898110570867662e-01  -1.6181338068548909e-01  -1.7445465607243038e-01  -1.8678216861378300e-01  -1.9868408751872699e-01  -2.1006161355233743e-01  -2.2083012035463648e-01  -2.3091939093795308e-01  -2.4027309645825368e-01  -2.4884768933534193e-01  -2.5661089479501492e-01  -2.6353998020420533e-01  -2.6961995408423056e-01  -2.7484181741224012e-01  -2.7920095587510718e-01  -2.8269573076453203e-01  -2.8532630216664290e-01  -2.8709369340211488e-01  -2.8799911010256418e-01  -2.8804344822807049e-01  -2.8722725358317935e-01  -2.8555023327437257e-01  -2.8301101661873407e-01  -2.7960851098861139e-01  -2.7534227096875408e-01  -2.7021285790028521e-01  -2.6422283847416128e-01  -2.5737755205963136e-01  -2.4968623033730300e-01  -2.4116307003040663e-01  -2.3182844784393067e-01  -2.2171011210074731e-01  -2.1084435771501417e-01  -1.9927707974218065e-01  -1.8706463501177348e-01  -1.7427441350185399e-01  -1.6098502102955922e-01  -1.4728600669519076e-01  -1.3327693347772190e-01  -1.1906613054348847e-01  -1.0476892544551758e-01  -9.0505178677293810e-02  -7.6395450110953736e-02  -6.2559871009766774e-02  -4.9115214295362912e-02  -3.6172084190809389e-02  -2.3829673867256256e-02  -1.2175246527431627e-02  -1.2898893607231636e-03  8.7548014688032510e-03  1.7901061323127531e-02  2.6105102094610901e-02  3.3333978535596227e-02  3.9561518838589362e-02  4.4772806971828311e-02  4.8962992156802387e-02  5.2134400678297471e-02  5.4309525908353667e-02  5.5527134473151295e-02  5.5838506717654710e-02  5.5312392829974161e-02  5.4032090442286608e-02  5.2094032270128439e-02  4.9604413734520895e-02  4.6675113489450221e-02  4.3419082081079481e-02  3.9945671497882425e-02  3.6356443600448846e-02  3.2741760032202492e-02  2.9178346015751710e-02  2.5728442289199606e-02  2.2439265533854627e-02  1.9343764205903977e-02  1.6462808705142041e-02  1.3807049567737447e-02  1.1379408724125061e-02  9.1779482282189160e-03  7.1987493747831168e-03  5.4387339002090352e-03  3.8981704797902924e-03  2.5827514626478639e-03  1.5051297586915545e-03  6.8666855678554994e-04  1.5869932955276333e-04  -3.1105146659027771e-05  -4.4930050984671012e-05  2.2868785747791256e-04  9.8043239298898255e-04  2.1116583969319597e-03  3.5259450983877393e-03  5.1243896110960366e-03  6.8088472916260643e-03  8.4861510785915976e-03  1.0073276866226196e-02  1.1501467817675840e-02  1.2718700189631867e-02  1.3690264076313772e-02  1.4397644143479306e-02  1.4836053481685176e-02  1.5011012646549254e-02  1.4934371083925872e-02  1.4620035249613066e-02  1.4079745129376481e-02  1.3319250910064532e-02  1.2335046483083822e-02  1.1112058907455724e-02  9.6225841137698095e-03  7.8264985072417376e-03  5.6728085552786526e-03  3.1020299146477101e-03  4.8799215679796185e-05  -3.5549090937655003e-03  -7.7769815715002669e-03  -1.2684063333962055e-02  -1.8338334293301856e-02  -2.4792722280387845e-02  -3.2090319673720280e-02  -4.0263633361150512e-02  -4.9329315684216543e-02  -5.9282704673594970e-02  -7.0095911013399473e-02  -8.1716895553646293e-02  -9.4068804687089225e-02  -1.0705119534870514e-01  -1.2054305123443540e-01  -1.3440730720957580e-01  -1.48