<?xml version="1.0"?>
<VTKFile type="UnstructuredGrid"  version="0.1"  >
<UnstructuredGrid>
<Piece  NumberOfPoints="16641" NumberOfCells="16384">
<Points>
<DataArray  type="Float64"  NumberOfComponents="3"  format="ascii">0 0 0  0.0078125 0 0  0.015625 0 0  0.0234375 0 0  0.03125 0 0  0.0390625 0 0  0.046875 0 0  0.0546875 0 0  0.0625 0 0  0.0703125 0 0  0.078125 0 0  0.0859375 0 0  0.09375 0 0  0.1015625 0 0  0.109375 0 0  0.1171875 0 0  0.125 0 0  0.1328125 0 0  0.140625 0 0  0.1484375 0 0  0.15625 0 0  0.1640625 0 0  0.171875 0 0  0.1796875 0 0  0.1875 0 0  0.1953125 0 0  0.203125 0 0  0.2109375 0 0  0.21875 0 0  0.2265625 0 0  0.234375 0 0  0.2421875 0 0  0.25 0 0  0.2578125 0 0  0.265625 0 0  0.2734375 0 0  0.28125 0 0  0.2890625 0 0  0.296875 0 0  0.3046875 0 0  0.3125 0 0  0.3203125 0 0  0.328125 0 0  0.3359375 0 0  0.34375 0 0  0.3515625 0 0  0.359375 0 0  0.3671875 0 0  0.375 0 0  0.3828125 0 0  0.390625 0 0  0.3984375 0 0  0.40625 0 0  0.4140625 0 0  0.421875 0 0  0.4296875 0 0  0.4375 0 0  0.4453125 0 0  0.453125 0 0  0.4609375 0 0  0.46875 0 0  0.4765625 0 0  0.484375 0 0  0.4921875 0 0  0.5 0 0  0.5078125 0 0  0.515625 0 0  0.5234375 0 0  0.53125 0 0  0.5390625 0 0  0.546875 0 0  0.5546875 0 0  0.5625 0 0  0.5703125 0 0  0.578125 0 0  0.5859375 0 0  0.59375 0 0  0.6015625 0 0  0.609375 0 0  0.6171875 0 0  0.625 0 0  0.6328125 0 0  0.640625 0 0  0.6484375 0 0  0.65625 0 0  0.6640625 0 0  0.671875 0 0  0.6796875 0 0  0.6875 0 0  0.6953125 0 0  0.703125 0 0  0.7109375 0 0  0.71875 0 0  0.7265625 0 0  0.734375 0 0  0.7421875 0 0  0.75 0 0  0.7578125 0 0  0.765625 0 0  0.7734375 0 0  0.78125 0 0  0.7890625 0 0  0.796875 0 0  0.8046875 0 0  0.8125 0 0  0.8203125 0 0  0.828125 0 0  0.8359375 0 0  0.84375 0 0  0.8515625 0 0  0.859375 0 0  0.8671875 0 0  0.875 0 0  0.8828125 0 0  0.890625 0 0  0.8984375 0 0  0.90625 0 0  0.9140625 0 0  0.921875 0 0  0.9296875 0 0  0.9375 0 0  0.9453125 0 0  0.953125 0 0  0.9609375 0 0  0.96875 0 0  0.9765625 0 0  0.984375 0 0  0.9921875 0 0  1 0 0  0 0.0078125 0  0.0078125 0.0078125 0  0.015625 0.0078125 0  0.0234375 0.0078125 0  0.03125 0.0078125 0  0.0390625 0.0078125 0  0.046875 0.0078125 0  0.0546875 0.0078125 0  0.0625 0.0078125 0  0.0703125 0.0078125 0  0.078125 0.0078125 0  0.0859375 0.0078125 0  0.09375 0.0078125 0  0.1015625 0.0078125 0  0.109375 0.0078125 0  0.1171875 0.0078125 0  0.125 0.0078125 0  0.1328125 0.0078125 0  0.140625 0.0078125 0  0.1484375 0.0078125 0  0.15625 0.0078125 0  0.1640625 0.0078125 0  0.171875 0.0078125 0  0.1796875 0.0078125 0  0.1875 0.0078125 0  0.1953125 0.0078125 0  0.203125 0.0078125 0  0.2109375 0.0078125 0  0.21875 0.0078125 0  0.2265625 0.0078125 0  0.234375 0.0078125 0  0.2421875 0.0078125 0  0.25 0.0078125 0  0.2578125 0.0078125 0  0.265625 0.0078125 0  0.2734375 0.0078125 0  0.28125 0.0078125 0  0.2890625 0.0078125 0  0.296875 0.0078125 0  0.3046875 0.0078125 0  0.3125 0.0078125 0  0.3203125 0.0078125 0  0.328125 0.0078125 0  0.3359375 0.0078125 0  0.34375 0.0078125 0  0.3515625 0.0078125 0  0.359375 0.0078125 0  0.3671875 0.0078125 0  0.375 0.0078125 0  0.3828125 0.0078125 0  0.390625 0.0078125 0  0.3984375 0.0078125 0  0.40625 0.0078125 0  0.4140625 0.0078125 0  0.421875 0.0078125 0  0.4296875 0.0078125 0  0.4375 0.0078125 0  0.4453125 0.0078125 0  0.453125 0.0078125 0  0.4609375 0.0078125 0  0.46875 0.0078125 0  0.4765625 0.0078125 0  0.484375 0.0078125 0  0.4921875 0.0078125 0  0.5 0.0078125 0  0.5078125 0.0078125 0  0.515625 0.0078125 0  0.5234375 0.0078125 0  0.53125 0.0078125 0  0.5390625 0.0078125 0  0.546875 0.0078125 0  0.5546875 0.0078125 0  0.5625 0.0078125 0  0.5703125 0.0078125 0  0.578125 0.0078125 0  0.5859375 0.0078125 0  0.59375 0.0078125 0  0.6015625 0.0078125 0  0.609375 0.0078125 0  0.6171875 0.0078125 0  0.625 0.0078125 0  0.6328125 0.0078125 0  0.640625 0.0078125 0  0.6484375 0.0078125 0  0.65625 0.0078125 0  0.6640625 0.0078125 0  0.671875 0.0078125 0  0.6796875 0.0078125 0  0.6875 0.0078125 0  0.6953125 0.0078125 0  0.703125 0.0078125 0  0.7109375 0.0078125 0  0.71875 0.0078125 0  0.7265625 0.0078125 0  0.734375 0.0078125 0  0.7421875 0.0078125 0  0.75 0.0078125 0  0.7578125 0.0078125 0  0.765625 0.0078125 0  0.7734375 0.0078125 0  0.78125 0.0078125 0  0.7890625 0.0078125 0  0.796875 0.0078125 0  0.8046875 0.0078125 0  0.8125 0.0078125 0  0.8203125 0.0078125 0  0.828125 0.0078125 0  0.8359375 0.0078125 0  0.84375 0.0078125 0  0.8515625 0.0078125 0  0.859375 0.0078125 0  0.8671875 0.0078125 0  0.875 0.0078125 0  0.8828125 0.0078125 0  0.890625 0.0078125 0  0.8984375 0.0078125 0  0.90625 0.0078125 0  0.9140625 0.0078125 0  0.921875 0.0078125 0  0.9296875 0.0078125 0  0.9375 0.0078125 0  0.9453125 0.0078125 0  0.953125 0.0078125 0  0.9609375 0.0078125 0  0.96875 0.0078125 0  0.9765625 0.0078125 0  0.984375 0.0078125 0  0.9921875 0.0078125 0  1 0.0078125 0  0 0.015625 0  0.0078125 0.015625 0  0.015625 0.015625 0  0.0234375 0.015625 0  0.03125 0.015625 0  0.0390625 0.015625 0  0.046875 0.015625 0  0.0546875 0.015625 0  0.0625 0.015625 0  0.0703125 0.015625 0  0.078125 0.015625 0  0.0859375 0.015625 0  0.09375 0.015625 0  0.1015625 0.015625 0  0.109375 0.015625 0  0.1171875 0.015625 0  0.125 0.015625 0  0.1328125 0.015625 0  0.140625 0.015625 0  0.1484375 0.015625 0  0.15625 0.015625 0  0.1640625 0.015625 0  0.171875 0.015625 0  0.1796875 0.015625 0  0.1875 0.015625 0  0.1953125 0.015625 0  0.203125 0.015625 0  0.2109375 0.015625 0  0.21875 0.015625 0  0.2265625 0.015625 0  0.234375 0.015625 0  0.2421875 0.015625 0  0.25 0.015625 0  0.2578125 0.015625 0  0.265625 0.015625 0  0.2734375 0.015625 0  0.28125 0.015625 0  0.2890625 0.015625 0  0.296875 0.015625 0  0.3046875 0.015625 0  0.3125 0.015625 0  0.3203125 0.015625 0  0.328125 0.015625 0  0.3359375 0.015625 0  0.34375 0.015625 0  0.3515625 0.015625 0  0.359375 0.015625 0  0.3671875 0.015625 0  0.375 0.015625 0  0.3828125 0.015625 0  0.390625 0.015625 0  0.3984375 0.015625 0  0.40625 0.015625 0  0.4140625 0.015625 0  0.421875 0.015625 0  0.4296875 0.015625 0  0.4375 0.015625 0  0.4453125 0.015625 0  0.453125 0.015625 0  0.4609375 0.015625 0  0.46875 0.015625 0  0.4765625 0.015625 0  0.484375 0.015625 0  0.4921875 0.015625 0  0.5 0.015625 0  0.5078125 0.015625 0  0.515625 0.015625 0  0.5234375 0.015625 0  0.53125 0.015625 0  0.5390625 0.015625 0  0.546875 0.015625 0  0.5546875 0.015625 0  0.5625 0.015625 0  0.5703125 0.015625 0  0.578125 0.015625 0  0.5859375 0.015625 0  0.59375 0.015625 0  0.6015625 0.015625 0  0.609375 0.015625 0  0.6171875 0.015625 0  0.625 0.015625 0  0.6328125 0.015625 0  0.640625 0.015625 0  0.6484375 0.015625 0  0.65625 0.015625 0  0.6640625 0.015625 0  0.671875 0.015625 0  0.6796875 0.015625 0  0.6875 0.015625 0  0.6953125 0.015625 0  0.703125 0.015625 0  0.7109375 0.015625 0  0.71875 0.015625 0  0.7265625 0.015625 0  0.734375 0.015625 0  0.7421875 0.015625 0  0.75 0.015625 0  0.7578125 0.015625 0  0.765625 0.015625 0  0.7734375 0.015625 0  0.78125 0.015625 0  0.7890625 0.015625 0  0.796875 0.015625 0  0.8046875 0.015625 0  0.8125 0.015625 0  0.8203125 0.015625 0  0.828125 0.015625 0  0.8359375 0.015625 0  0.84375 0.015625 0  0.8515625 0.015625 0  0.859375 0.015625 0  0.8671875 0.015625 0  0.875 0.015625 0  0.8828125 0.015625 0  0.890625 0.015625 0  0.8984375 0.015625 0  0.90625 0.015625 0  0.9140625 0.015625 0  0.921875 0.015625 0  0.9296875 0.015625 0  0.9375 0.015625 0  0.9453125 0.015625 0  0.953125 0.015625 0  0.9609375 0.015625 0  0.96875 0.015625 0  0.9765625 0.015625 0  0.984375 0.015625 0  0.9921875 0.015625 0  1 0.015625 0  0 0.0234375 0  0.0078125 0.0234375 0  0.015625 0.0234375 0  0.0234375 0.0234375 0  0.03125 0.0234375 0  0.0390625 0.0234375 0  0.046875 0.0234375 0  0.0546875 0.0234375 0  0.0625 0.0234375 0  0.0703125 0.0234375 0  0.078125 0.0234375 0  0.0859375 0.0234375 0  0.09375 0.0234375 0  0.1015625 0.0234375 0  0.109375 0.0234375 0  0.1171875 0.0234375 0  0.125 0.0234375 0  0.1328125 0.0234375 0  0.140625 0.0234375 0  0.1484375 0.0234375 0  0.15625 0.0234375 0  0.1640625 0.0234375 0  0.171875 0.0234375 0  0.1796875 0.0234375 0  0.1875 0.0234375 0  0.1953125 0.0234375 0  0.203125 0.0234375 0  0.2109375 0.0234375 0  0.21875 0.0234375 0  0.2265625 0.0234375 0  0.234375 0.0234375 0  0.2421875 0.0234375 0  0.25 0.0234375 0  0.2578125 0.0234375 0  0.265625 0.0234375 0  0.2734375 0.0234375 0  0.28125 0.0234375 0  0.2890625 0.0234375 0  0.296875 0.0234375 0  0.3046875 0.0234375 0  0.3125 0.0234375 0  0.3203125 0.0234375 0  0.328125 0.0234375 0  0.3359375 0.0234375 0  0.34375 0.0234375 0  0.3515625 0.0234375 0  0.359375 0.0234375 0  0.3671875 0.0234375 0  0.375 0.0234375 0  0.3828125 0.0234375 0  0.390625 0.0234375 0  0.3984375 0.0234375 0  0.40625 0.0234375 0  0.4140625 0.0234375 0  0.421875 0.0234375 0  0.4296875 0.0234375 0  0.4375 0.0234375 0  0.4453125 0.0234375 0  0.453125 0.0234375 0  0.4609375 0.0234375 0  0.46875 0.0234375 0  0.4765625 0.0234375 0  0.484375 0.0234375 0  0.4921875 0.0234375 0  0.5 0.0234375 0  0.5078125 0.0234375 0  0.515625 0.0234375 0  0.5234375 0.0234375 0  0.53125 0.0234375 0  0.5390625 0.0234375 0  0.546875 0.0234375 0  0.5546875 0.0234375 0  0.5625 0.0234375 0  0.5703125 0.0234375 0  0.578125 0.0234375 0  0.5859375 0.0234375 0  0.59375 0.0234375 0  0.6015625 0.0234375 0  0.609375 0.0234375 0  0.6171875 0.0234375 0  0.625 0.0234375 0  0.6328125 0.0234375 0  0.640625 0.0234375 0  0.6484375 0.0234375 0  0.65625 0.0234375 0  0.6640625 0.0234375 0  0.671875 0.0234375 0  0.6796875 0.0234375 0  0.6875 0.0234375 0  0.6953125 0.0234375 0  0.703125 0.0234375 0  0.7109375 0.0234375 0  0.71875 0.0234375 0  0.7265625 0.0234375 0  0.734375 0.0234375 0  0.7421875 0.0234375 0  0.75 0.0234375 0  0.7578125 0.0234375 0  0.765625 0.0234375 0  0.7734375 0.0234375 0  0.78125 0.0234375 0  0.7890625 0.0234375 0  0.796875 0.0234375 0  0.8046875 0.0234375 0  0.8125 0.0234375 0  0.8203125 0.0234375 0  0.828125 0.0234375 0  0.8359375 0.0234375 0  0.84375 0.0234375 0  0.8515625 0.0234375 0  0.859375 0.0234375 0  0.8671
[...]
<PointData  Scalars="v_sol"> 
<DataArray  type="Float64"  Name="v_sol"  format="ascii">-1.1418512521601625e-06  3.1509566888191169e-06  1.3443760761126184e-05  2.4926404707875412e-05  3.4628005244325876e-05  4.1665920698645912e-05  4.5785751121675101e-05  4.7065075625173798e-05  4.5792954338309067e-05  4.2421868531923308e-05  3.7512640301856827e-05  3.1674919835334110e-05  2.5507065657277041e-05  1.9543475007255784e-05  1.4214557002823710e-05  9.8216962027613563e-06  6.5267220931858146e-06  4.3546366743276616e-06  3.2057208778395091e-06  2.8767626575946655e-06  3.0899987337399443e-06  3.5226867660474879e-06  3.8451434407801985e-06  3.7518086565333918e-06  2.9895505325427066e-06  1.3739126680718895e-06  -1.2082248159900145e-06  -4.8077407449918113e-06  -9.4354193106007101e-06  -1.5085609451232714e-05  -2.1760921630077971e-05  -2.9485027489717567e-05  -3.8304476769617443e-05  -4.8275188322544815e-05  -5.9450767388069358e-05  -7.1897363214243952e-05  -8.5658299234795592e-05  -1.0073215747632252e-04  -1.1704690014037022e-04  -1.3446294469971360e-04  -1.5298181344383408e-04  -1.7231772845957371e-04  -1.9239453226807087e-04  -2.1288729643440999e-04  -2.3328323932706978e-04  -2.5334105600205030e-04  -2.7263700177976969e-04  -2.9076061963908103e-04  -3.0723292902270171e-04  -3.2163506090436469e-04  -3.3365358196916150e-04  -3.4281943082715917e-04  -3.4877747008493890e-04  -3.5120298172816827e-04  -3.4982474930003607e-04  -3.4442298407661305e-04  -3.3483359198271316e-04  -3.2094850412398175e-04  -3.0271586301266172e-04  -2.8013929285842143e-04  -2.5327734367162083e-04  -2.2224293192733718e-04  -1.8720557512899938e-04  -1.4838470415105503e-04  -1.0608606211621359e-04  -6.0586055330071341e-05  -1.2564317120043374e-05  3.8182870480348706e-05  9.0613277897865643e-05  1.4417151385458490e-04  1.9820855461132373e-04  2.5195158452455835e-04  3.0458521778135617e-04  3.5523083648558528e-04  4.0297418916453225e-04  4.4687948173929062e-04  4.8601593929409239e-04  5.1948518491880453e-04  5.4645643342602778e-04  5.6619377352248998e-04  5.7813635718442899e-04  5.8189767739483538e-04  5.7713689765793226e-04  5.6313167600883618e-04  5.4049741221709360e-04  5.1044833444862563e-04  4.7422292192169464e-04  4.3118021562398614e-04  3.8245766222742551e-04  3.2915475697439220e-04  2.7369157183078190e-04  2.1730832916084099e-04  1.6058325489286786e-04  1.0531319509446044e-04  5.2732178685715329e-05  3.5691833279523855e-06  -4.0459286451174582e-05  -7.9283841890413970e-05  -1.1264198866852398e-04  -1.3979981420776091e-04  -1.6105582167070791e-04  -1.7637219672069472e-04  -1.8616374833775053e-04  -1.9091058727764234e-04  -1.9121207334204087e-04  -1.8771818150795783e-04  -1.8112929539765112e-04  -1.7213649014876747e-04  -1.6142496894851126e-04  -1.4956344683108257e-04  -1.3709238536722333e-04  -1.2447038117845233e-04  -1.1207583376725757e-04  -1.0018714066423522e-04  -8.9002236706362599e-05  -7.8674552104503892e-05  -6.9286353404005320e-05  -6.0864449707680815e-05  -5.3375718458898016e-05  -4.6717803120904721e-05  -4.0711028896442087e-05  -3.5092815685241887e-05  -2.9526833243029409e-05  -2.3641141382596666e-05  -1.7123727825447248e-05  -9.9373534544030579e-06  -2.7998336206596814e-06  1.9930680290027088e-06  1.3889355698176256e-06  1.0826965573874965e-05  -5.1422250446997723e-06  -6.5226403807428795e-05  -1.2760304225900777e-04  -1.7905388444781699e-04  -2.1587772412556800e-04  -2.3720512522593353e-04  -2.4357096628783463e-04  -2.3656800426476534e-04  -2.1862297573444080e-04  -1.9272639579633814e-04  -1.6211435116634276e-04  -1.2994758478711456e-04  -9.9032361566698819e-05  -7.1612626356916574e-05  -4.9244226933074727e-05  -3.2747283807280076e-05  -2.2225446000578359e-05  -1.7135316055894700e-05  -1.6398731347830882e-05  -1.8549082390043482e-05  -2.1895498060906855e-05  -2.4711978240901665e-05  -2.5409123051582416e-05  -2.2679711461987002e-05  -1.5587112900467761e-05  -3.5800035556403970e-06  1.3566209374772335e-05  3.5864662283447614e-05  6.3252792342881881e-05  9.5716002144406956e-05  1.3336229068688338e-04  1.7643993782031026e-04  2.2527467189092473e-04  2.8020127909413658e-04  3.4155235944072031e-04  4.0958364405465031e-04  4.8436723019766527e-04  5.6564482680344680e-04  6.5292840021322508e-04  7.4587709070164480e-04  8.4351546348606277e-04  9.4506943877234440e-04  1.0490638823828205e-03  1.1535334736324887e-03  1.2568589122600412e-03  1.3570983559372050e-03  1.4521313032340236e-03  1.5397755547501767e-03  1.6179077181425092e-03  1.6844179862923788e-03  1.7372230556661501e-03  1.7743801359323792e-03  1.7941490057834188e-03  1.7950120079903112e-03  1.7756937125922871e-03  1.7351769081183504e-03  1.6727105137196094e-03  1.5878129888991710e-03  1.4802731964949154e-03  1.3501515547556231e-03  1.1977840106422158e-03  1.0237897169437817e-03  8.2908970739740083e-04  6.1492722496391721e-04  3.8278649192936809e-04  1.3500631164276716e-04  -1.2707643140069411e-04  -4.0076095280774910e-04  -6.8245933964662534e-04  -9.6865945884420110e-04  -1.2552843091740110e-03  -1.5378541877225343e-03  -1.8114887291313065e-03  -2.0710003434632708e-03  -2.3110000778522326e-03  -2.5260466961936311e-03  -2.7108274626837362e-03  -2.8603698419765481e-03  -2.9702855702577438e-03  -3.0369943871784598e-03  -3.0577779154428216e-03  -3.0306811171720680e-03  -2.9542825176092852e-03  -2.8312467409829655e-03  -2.6666866124633154e-03  -2.4651549047632541e-03  -2.2287101170024633e-03  -1.9632862556588559e-03  -1.6763153511027799e-03  -1.3776851505114614e-03  -1.0750611755628568e-03  -7.7458345838248195e-04  -4.8395460605734589e-04  -2.0952933373622455e-04  4.3302130933946397e-05  2.6895921284258160e-04  4.6590667221094547e-04  6.3217135112856270e-04  7.6611467112605862e-04  8.6846796873969452e-04  9.4017819688839151e-04  9.8346623879805805e-04  1.0010929146553572e-03  9.9637013628049763e-04  9.7285965797746328e-04  9.3423199563487911e-04  8.8409947124319709e-04  8.2588222663449048e-04  7.6256936141819740e-04  6.9681863823763915e-04  6.3087431140967389e-04  5.6655494081575076e-04  5.0520767146790778e-04  4.4779789944569191e-04  3.9501709376880121e-04  3.4724219957024634e-04  3.0457243289759404e-04  2.6681247825230788e-04  2.3342068513216240e-04  2.0345415008039125e-04  1.7552736007783411e-04  1.4783766532732589e-04  1.1833087878546073e-04  8.5143414252829909e-05  4.7625420721266926e-05  8.7558351986085323e-06  -1.8416300539049947e-05  -6.2045231040699052e-06  2.1153268963872847e-05  -1.0054075380570095e-04  -3.2359312488494955e-04  -5.5578904296314259e-04  -7.5186210497809670e-04  -8.9439654319031401e-04  -9.7768874943732209e-04  -1.0026369957519209e-03  -9.7482074283144387e-04  -9.0330859943587043e-04  -7.9947784935064466e-04  -6.7575802434912920e-04  -5.4439765693176535e-04  -4.1638465568247219e-04  -3.0061627637003257e-04  -2.0336389011128711e-04  -1.2803004994636679e-04  -7.5166727181447522e-05  -4.2717361781100924e-05  -2.6437083148508814e-05  -2.0453706484575606e-05  -1.7967386413924769e-05  -1.1971226474230951e-05  4.0474835564601090e-06  3.5533740237034518e-05  8.6513934308767292e-05  1.5952691401796359e-04  2.5583352629323693e-04  3.7584237356046282e-04  5.1961233529607652e-04  6.8724775323828239e-04  8.7914311028197364e-04  1.0960695824436745e-03  1.3390972622156275e-03  1.6091342810513700e-03  1.9064773037366144e-03  2.2309561040150393e-03  2.5818704030253041e-03  2.9573620647419113e-03  3.3542143442734863e-03  3.7675630742213750e-03  4.1923424367138248e-03  4.6223968149126538e-03  5.0506163094628815e-03  5.4689537990244780e-03  5.8687683323931155e-03  6.2411318849168469e-03  6.5770479371085452e-03  6.8677273498447449e-03  7.1049672630608797e-03  7.2813274806287926e-03  7.3900600460140489e-03  7.4255061922571244e-03  7.3831703301284884e-03  7.2597519675726306e-03  7.0531378966756765e-03  6.7623638578642566e-03  6.3875528512551552e-03  5.9298410757585053e-03  5.3913038464033667e-03  4.7748912698105288e-03  4.0843822421423774e-03  3.3243623476955503e-03  2.5002210182681014e-03  1.6181694705310918e-03  6.8540964596864489e-04  -2.9087467756829378e-04  -1.3021244968681961e-03  -2.3373549650485183e-03  -3.3856880599068030e-03  -4.4348481145780405e-03  -5.4715528008499161e-03  -6.4814332220969008e-03  -7.4492318898512714e-03  -8.3589936615474664e-03  -9.1943755873246311e-03  -9.9390334659068477e-03  -1.0577098753319773e-02  -1.1093729195010123e-02  -1.1475707483427883e-02  -1.1712058008177898e-02  -1.1794486336891459e-02  -1.1717665032455485e-02  -1.1479769875419019e-02  -1.1083073801275704e-02  -1.0534543943182215e-02  -9.8467503650214692e-03  -9.0384647651050257e-03  -8.1275193081529473e-03  -7.1328707919264978e-03  -6.0751125585836374e-03  -4.9802920428667534e-03  -3.8754654432821617e-03  -2.7839580081140476e-03  -1.7281787585242199e-03  -7.2933880898854505e-04  1.9362048756757435e-04  1.0237642853160988e-03  1.7517601974086285e-03  2.3703706600793134e-03  2.8743611266188827e-03  3.2639470674073958e-03  3.5421270661220444e-03  3.7155031442152190e-03  3.7932441202875602e-03  3.7866005245090601e-03  3.7082089231454253e-03  3.5713830761962694e-03  3.3894375246286976e-03  3.1750724025737592e-03  2.9399318403625575e-03  2.6942614876973737e-03  2.4466051331604511e-03  2.2039688671345848e-03  1.9718986754630255e-03  1.7543513949588997e-03  1.5539427935222540e-03  1.3719557304467419e-03  1.2082680672996103e-03  1.0612385352244188e-03  9.2755436808672367e-04  8.0219073799995448e-04  6.7865680590525575e-04  5.4981680493783184e-04  4.0975564200986149e-04  2.5756244205760853e-04  1.0483680256586230e-04  -1.0154115999590717e-05  -1.8191464673735158e-05  2.1450330436652222e-05  -3.2049434605608613e-04  -7.7321467898110543e-04  -1.2262957923307235e-03  -1.6094244076944222e-03  -1.8886169561219807e-03  -2.0507612036520851e-03  -2.0963102554524206e-03  -2.0356002429317822e-03  -1.8862140945301170e-03  -1.6704713750418374e-03  -1.4128828107831718e-03  -1.1377090153085038e-03  -8.6682523614547069e-04  -6.1805290773702705e-04  -4.0403915385350570e-04  -2.3169882235270253e-04  -1.0217555430548951e-04  -1.1265372056723019e-05  4.9783284822608553e-05  9.3082669165573729e-05  1.3272770858518607e-04  1.8329563787055153e-04  2.5840430292974634e-04  3.6953918170476755e-04  5.2533995346740279e-04  7.3146726369338047e-04  9.9101451471291196e-04  1.3052555849380173e-03  1.6745789551058429e-03  2.0994021275554755e-03  2.5804710431075002e-03  3.1186144353880230e-03  3.7145696791302321e-03  4.3689363189603689e-03  5.0807817885715851e-03  5.8466454529833159e-03  6.6605869221814367e-03  7.5151558588854236e-03  8.4002738956195470e-03  9.3032464886899785e-03  1.0209189577885608e-02  1.1101358577349984e-02  1.1962023349659616e-02  1.2772728238999565e-02  1.3514236516003243e-02  1.4167915345741976e-02  1.4716273941304595e-02  1.5143533517741234e-02  1.5436028439440797e-02  1.5582534562315474e-02  1.5574590835112969e-02  1.5406437660082152e-02  1.5075033375416026e-02  1.4579885160846025e-02  1.3922816283821604e-02  1.3107688613144900e-02  1.2140112748018912e-02  1.1027170800693979e-02  9.7771723255828252e-03  8.3994595204364021e-03  6.9042706053824964e-03  5.3026636127723285e-03  3.6064993272689168e-03  1.8284613017926989e-03  -1.8111852362142279e-05  -1.9190138038071996e-03  -3.8571554491041143e-03  -5.8158918416652775e-03  -7.7768536346309591e-03  -9.7201428692204623e-03  -1.1624361184926352e-02  -1.3466670356994561e-02  -1.5222930753288245e-02  -1.6867984926306111e-02  -1.8376054718309467e-02  -1.9721283673858406e-02  -2.0878408611332628e-02  -2.1823548129884799e-02  -2.2535072583869140e-02  -2.2994483656238348e-02  -2.3187354757743014e-02  -2.3104359342742350e-02  -2.2742253010901561e-02  -2.2102119219228295e-02  -2.1191441130182526e-02  -2.0026265360197023e-02  -1.8630512330126681e-02  -1.7033141896797856e-02  -1.5267096309729162e-02  -1.3368974483391400e-02  -1.1375887180575474e-02  -9.3272887394983961e-03  -7.2648832490594777e-03  -5.2305028607374142e-03  -3.2631611025188433e-03  -1.3976762800511939e-03  3.3283895392863987e-04  1.8982881468457406e-03  3.2788987450449772e-03  4.4603816950125469e-03  5.4321594356099194e-03  6.1920299639521359e-03  6.7436967888737220e-03  7.0972847064155126e-03  7.2683114087589411e-03  7.2766779684125737e-03  7.1454238556675322e-03  6.8993386677666376e-03  6.5637074611456852e-03  6.1629368904502473e-03  5.7195738033138065e-03  5.2536649920620279e-03  4.7822951035095184e-03  4.3193034122605617e-03  3.8756082253213545e-03  3.4589848001217562e-03  3.0740899962847586e-03  2.7224205792440825e-03  2.4020881550437796e-03  2.1076605201171533e-03  1.8302294346573824e-03  1.5580733282346381e-03  1.2784073647929075e-03  9.8094548907218314e-04  6.6438037069762223e-04  3.4739321819008269e-04  8.6110034575047768e-05  -2.4496906115340242e-05  1.7060079521067305e-05  -6.5161266357869675e-04  -1.3983292283059631e-03  -2.1098399842285173e-03  -2.7027380679473015e-03  -3.1303124744085833e-03  -3.3727709519052696e-03  -3.4305879783148416e-03  -3.3197909888833380e-03  -3.0678799925524867e-03  -2.7097782196670388e-03  -2.2837846175046855e-03  -1.8277555172662387e-03  -1.3757896910404140e-03  -9.5562644040613387e-04  -5.8687174406982635e-04  -2.8006168763917722e-04  -3.6552726528529007e-05  1.5090313803141949e-04  2.9683451310797418e-04  4.2120444987022115e-04  5.4717923769346101e-04  6.9866886708523483e-04  8.9798433074329690e-04  1.1639691095132862e-03  1.5108748377238401e-03  1.9481041777496999e-03  2.4809003191206863e-03  3.1117199079298166e-03  3.8413484643113772e-03  4.6697226050803542e-03  5.5971184784162223e-03  6.6236858185396283e-03  7.7476531336945252e-03  8.9643652182151840e-03  1.0266990614065278e-02  1.1644799725540998e-02  1.3082536906054758e-02  1.4560529302752473e-02  1.6055665542978062e-02  1.7541828924307817e-02  1.8989332290787985e-02  2.0367140456336384e-02  2.1643598155988680e-02  2.2787631060087094e-02  2.3770245975562931e-02  2.4565232045336543e-02  2.5150258535099234e-02  2.5507464940399616e-02  2.5623832781041311e-02  2.5491280489311603e-02  2.5106453286327070e-02  2.4470379309295194e-02  2.3587926928469949e-02  2.2467205128393408e-02  2.1118919126205091e-02  1.9555753485487139e-02  1.7791814679507658e-02  1.5842165080079670e-02  1.3722463661342010e-02  1.1448720844735654e-02  9.0371673606370988e-03  6.5042317816504311e-03  3.8666114317852896e-03  1.1414099873805900e-03  -1.6536727524667642e-03  -4.4991106060939447e-03  -7.3755209346666028e-03  -1.0262048244433226e-02  -1.3135643231409774e-02  -1.5971599850788772e-02  -1.8743049269051147e-02  -2.1421074703811247e-02  -2.3974772477723665e-02  -2.6371539866518870e-02  -2.8577527453747628e-02  -3.0558291837855300e-02  -3.2279643924799588e-02  -3.3708675623086069e-02  -3.4814928773224812e-02  -3.5571670780120974e-02  -3.5957186373597572e-02  -3.5955949827635725e-02  -3.5559353010183842e-02  -3.4768143855521655e-02  -3.3592024826906278e-02  -3.2048243065778290e-02  -3.0159363849620598e-02  -2.7960333097507326e-02  -2.5494501743037225e-02  -2.2810347580846019e-02  -1.9957447603133515e-02  -1.6987169060615155e-02  -1.3955428344892702e-02  -1.0916836757775784e-02  -7.9242281879212222e-03  -5.0299955138908255e-03  -2.2814151680840022e-03  2.7618604661296033e-04  2.6013510339635945e-03  4.6636918762248680e-03  6.4408733758055036e-03  7.9161158894409892e-03  9.0831762138094442e-03  9.9448419269175300e-03  1.0513149809378796e-02  1.0808577662754244e-02  1.0858679954379315e-02  1.0696364062001014e-02  1.0357780608585191e-02  9.8802989678788804e-03  9.3005512856872592e-03  8.6528736885621259e-03  7.9679301271067121e-03  7.2719868472407223e-03  6.5863710669124562e-03  5.9275397796498585e-03  5.3067191796382545e-03  4.7296064384874234e-03  4.1961568413996205e-03  3.7003911997013118e-03  3.2306367091004761e-03  2.7706457601590225e-03  2.3022260593137376e-03  1.8101811393591329e-03  1.2905478417133949e-03  7.6324438495889598e-04  2.9048597299806829e-04  -2.5434103683488462e-05  1.0056902089841944e-05  -1.0738776306114073e-03  -2.1735057511365384e-03  -3.1757311992873199e-03  -3.9919144817898303e-03  -4.5679847409921112e-03  -4.8805812416379225e-03  -4.9323268026766690e-03  -4.7468159328385127e-03  -4.3632436291668204e-03  -3.8307308115384836e-03  -3.2026420102425441e-03  -2.5312977456085810e-03  -1.8634451081210662e-03  -1.2367325483119500e-03  -6.7730191966546113e-04  -1.9853570224371794e-04  1.9915317380185966e-04  5.2743533459535775e-04  8.0819145590239796e-04  1.0709247223814236e-03  1.3494595985390604e-03  1.6784067451834580e-03  2.0898152695564367e-03  2.6104541586311598e-03  3.2603512977715712e-03  4.0527493018778175e-03  4.9947823661156739e-03  6.0890024630205529e-03  7.3359279809448383e-03  8.7344643496157174e-03  1.0280826036131839e-02  1.1969250356236102e-02  1.3791214737162867e-02  1.5733051372334130e-02  1.7775060313011237e-02  1.9892022156021226e-02  2.2052751439353969e-02  2.4219738961369058e-02  2.6351062649025047e-02  2.8401587395462172e-02  3.0325361091728942e-02  3.2076826633721141e-02  3.3613110108937937e-02  3.4895789408254219e-02  3.5892263309013454e-02  3.6576874087414904e-02  3.6931419264885759e-02  3.6945279923193845e-02  3.6615068287747660e-02  3.5943936971488420e-02  3.4940655642458907e-02  3.3618531123559184e-02  3.1994310477751101e-02  3.0087123190809268e-02  2.7917539221326892e-02  2.5506776810458466e-02  2.2876087048213190e-02  2.0046319283257830e-02  1.7037663363605498e-02  1.3869553058015580e-02  1.0560714857741548e-02  7.1293433206424438e-03  3.5933930392291211e-03  -2.9001724870549441e-05  -3.7190194918264481e-03  -7.4574073540667743e-03  -1.1223633432277809e-02  -1.4994721891901885e-02  -1.8745757198617215e-02  -2.2448954497070534e-02  -2.6073692311864970e-02  -2.9586248855323800e-02  -3.2949905003517174e-02  -3.6125167153445693e-02  -3.9070265238899178e-02  -4.1741897334065803e-02  -4.4096251914807559e-02  -4.6090289103955684e-02  -4.7683251918051804e-02  -4.8838339408000239e-02  -4.9524456993333577e-02  -4.9717936914708591e-02  -4.9404356120264482e-02  -4.8579285431960509e-02  -4.7249099906457030e-02  -4.5431639077970709e-02  -4.3157884267898551e-02  -4.0466722656817992e-02  -3.7405998754141377e-02  -3.4029348477930245e-02  -3.0399824571841080e-02  -2.6584575570313303e-02  -2.2648027412249822e-02  -1.8655674760393468e-02  -1.4673637197228865e-02  -1.0765220462358463e-02  -6.9907430529265327e-03  -3.4047517433376771e-03  -6.1176938333815160e-05  2.9894460788682936e-03  5.7079034609212312e-03  8.0644719131213183e-03  1.0036651432468931e-02  1.1613487913807676e-02  1.2795765345364848e-02  1.3596097868242573e-02  1.4038392867991996e-02  1.4156342675407427e-02  1.3991291962261695e-02  1.3589604209781482e-02  1.2999898095108353e-02  1.2270293576668556e-02  1.1446255238248495e-02  1.0568812491174901e-02  9.6730334428130806e-03  8.7871294539764219e-03  7.9321637670597515e-03  7.1212795426011301e-03  6.3591698604084307e-03  5.6418357293400992e-03  4.9569083334384811e-03  4.2850845047359325e-03  3.6033473607567528e-03  2.8907078908356042e-03  2.1372148326193694e-03  1.3569470441276827e-03  6.0543734076347669e-04  -2.1588858908507083e-05  1.7562625255014017e-06  -1.5700562172508530e-03  -3.0746072309291890e-03  -4.3959433557732965e-03  -5.4435607978948267e-03  -6.1604872328428354e-03  -6.5238030351478602e-03  -6.5417292533256812e-03  -6.2484392442612672e-03  -5.6973822175984262e-03  -4.9538556457163051e-03  -4.0875637609937392e-03  -3.1658078316174655e-03  -2.2477722039399017e-03  -1.3801712616082632e-03  -5.9434209020535955e-04  9.5232666867618254e-05  6.9105577561149646e-04  1.2112540735725417e-03  1.6871463705019102e-03  2.1595899165161520e-03  2.6745396056364282e-03  3.2781947401945817e-03  4.0125412886335664e-03  4.9121601466690862e-03  6.0021107981299525e-03  7.2977905651122991e-03  8.8071393914347634e-03  1.0531797867379265e-02  1.2467595145770517e-02  1.4607245350054887e-02  1.6939663406011031e-02  1.9448086833150260e-02  2.2109408109565316e-02  2.4893530334811197e-02  2.7761188553317426e-02  3.0664746666188611e-02  3.3549662826317203e-02  3.6356679511870389e-02  3.9023720538764198e-02  4.1489123330713105e-02  