<?xml version="1.0"?>
<VTKFile type="UnstructuredGrid"  version="0.1"  >
<UnstructuredGrid>
<Piece  NumberOfPoints="25" NumberOfCells="16">
<Points>
<DataArray  type="Float64"  NumberOfComponents="3"  format="ascii">0 0 0  0.25 0 0  0.5 0 0  0.75 0 0  1 0 0  0 0.25 0  0.25 0.25 0  0.5 0.25 0  0.75 0.25 0  1 0.25 0  0 0.5 0  0.25 0.5 0  0.5 0.5 0  0.75 0.5 0  1 0.5 0  0 0.75 0  0.25 0.75 0  0.5 0.75 0  0.75 0.75 0  1 0.75 0  0 1 0  0.25 1 0  0.5 1 0  0.75 1 0  1 1 0  </DataArray>
</Points>
<Cells>
<DataArray  type="UInt32"  Name="connectivity"  format="ascii">0 1 6 5  1 2 7 6  2 3 8 7  3 4 9 8  5 6 11 10  6 7 12 11  7 8 13 12  8 9 14 13  10 11 16 15  11 12 17 16  12 13 18 17  13 14 19 18  15 16 21 20  16 17 22 21  17 18 23 22  18 19 24 23  </DataArray>
<DataArray  type="UInt32"  Name="offsets"  format="ascii">4 8 12 16 20 24 28 32 36 40 44 48 52 56 60 64 </DataArray>
<DataArray  type="UInt8"  Name="types"  format="ascii">9 9 9 9 9 9 9 9 9 9 9 9 9 9 9 9 </DataArray>
</Cells>
<PointData  Scalars="u_sol"> 
<DataArray  type="Float64"  Name="u_sol"  format="ascii">-4.7376478352303974e-04  2.3976452239794651e-03  6.2299965464010214e-03  4.3448863228529762e-03  -6.9619122172303368e-04  -1.8870615405154544e-03  9.5514743877891089e-03  2.4819938867784164e-02  1.7306820724798052e-02  -2.7741780089420923e-03  -5.1932661620937917e-08  5.8269277272617742e-08  -3.9004354360910876e-08  1.3159954048622106e-07  7.2570836965636654e-08  1.8870968646782433e-03  -9.5515112460622161e-03  -2.4819914642207737e-02  -1.7306902241638694e-02  2.7741298407330411e-03  4.7379800053542987e-04  -2.3976880464699800e-03  -6.2299669890370042e-03  -4.3449864877892113e-03  6.9614241649382485e-04  </DataArray> 
</PointData> 
</Piece>
</UnstructuredGrid>
</VTKFile>