<?xml version="1.0"?>
<VTKFile type="UnstructuredGrid"  version="0.1"  >
<UnstructuredGrid>
<Piece  NumberOfPoints="25" NumberOfCells="16">
<Points>
<DataArray  type="Float64"  NumberOfComponents="3"  format="ascii">0 0 0  0.25 0 0  0.5 0 0  0.75 0 0  1 0 0  0 0.25 0  0.25 0.25 0  0.5 0.25 0  0.75 0.25 0  1 0.25 0  0 0.5 0  0.25 0.5 0  0.5 0.5 0  0.75 0.5 0  1 0.5 0  0 0.75 0  0.25 0.75 0  0.5 0.75 0  0.75 0.75 0  1 0.75 0  0 1 0  0.25 1 0  0.5 1 0  0.75 1 0  1 1 0  </DataArray>
</Points>
<Cells>
<DataArray  type="UInt32"  Name="connectivity"  format="ascii">0 1 6 5  1 2 7 6  2 3 8 7  3 4 9 8  5 6 11 10  6 7 12 11  7 8 13 12  8 9 14 13  10 11 16 15  11 12 17 16  12 13 18 17  13 14 19 18  15 16 21 20  16 17 22 21  17 18 23 22  18 19 24 23  </DataArray>
<DataArray  type="UInt32"  Name="offsets"  format="ascii">4 8 12 16 20 24 28 32 36 40 44 48 52 56 60 64 </DataArray>
<DataArray  type="UInt8"  Name="types"  format="ascii">9 9 9 9 9 9 9 9 9 9 9 9 9 9 9 9 </DataArray>
</Cells>
<PointData  Scalars="u_sol"> 
<DataArray  type="Float64"  Name="u_sol"  format="ascii">-4.7375959536496385e-04  2.3976254830939698e-03  6.2300481897885566e-03  4.3448172198631615e-03  -6.9621441096898683e-04  -1.8870495982140449e-03  9.5514650562927381e-03  2.4819981154876034e-02  1.7306764781233358e-02  -2.7742042624023010e-03  -5.2188523448539609e-08  5.8797559391188942e-08  -3.8384255665428746e-08  1.3049523062825362e-07  7.2638717365722250e-08  1.8870850734809660e-03  -9.5515021943486308e-03  -2.4819957273448469e-02  -1.7306845799929482e-02  2.7741560415799056e-03  4.7379302188648473e-04  -2.3976688025563182e-03  -6.2300191842473698e-03  -4.3449161723224010e-03  6.9616557520419222e-04  </DataArray> 
</PointData> 
</Piece>
</UnstructuredGrid>
</VTKFile>