<?xml version="1.0"?>
<VTKFile type="UnstructuredGrid"  version="0.1"  >
<UnstructuredGrid>
<Piece  NumberOfPoints="25" NumberOfCells="16">
<Points>
<DataArray  type="Float64"  NumberOfComponents="3"  format="ascii">0 0 0  0.25 0 0  0.5 0 0  0.75 0 0  1 0 0  0 0.25 0  0.25 0.25 0  0.5 0.25 0  0.75 0.25 0  1 0.25 0  0 0.5 0  0.25 0.5 0  0.5 0.5 0  0.75 0.5 0  1 0.5 0  0 0.75 0  0.25 0.75 0  0.5 0.75 0  0.75 0.75 0  1 0.75 0  0 1 0  0.25 1 0  0.5 1 0  0.75 1 0  1 1 0  </DataArray>
</Points>
<Cells>
<DataArray  type="UInt32"  Name="connectivity"  format="ascii">0 1 6 5  1 2 7 6  2 3 8 7  3 4 9 8  5 6 11 10  6 7 12 11  7 8 13 12  8 9 14 13  10 11 16 15  11 12 17 16  12 13 18 17  13 14 19 18  15 16 21 20  16 17 22 21  17 18 23 22  18 19 24 23  </DataArray>
<DataArray  type="UInt32"  Name="offsets"  format="ascii">4 8 12 16 20 24 28 32 36 40 44 48 52 56 60 64 </DataArray>
<DataArray  type="UInt8"  Name="types"  format="ascii">9 9 9 9 9 9 9 9 9 9 9 9 9 9 9 9 </DataArray>
</Cells>
<PointData  Scalars="v_sol"> 
<DataArray  type="Float64"  Name="v_sol"  format="ascii">2.3505074774218029e-04  2.1190519873627799e-03  8.8080003606080435e-04  -2.5251202702504232e-03  -1.1845142521491950e-03  -1.2879370529324011e-03  -1.1612582552631562e-02  -4.8266682735865277e-03  1.3837088541111514e-02  6.4922616142898100e-03  -2.4725528246705283e-03  -2.2292668541887412e-02  -9.2657710981145121e-03  2.6563672533312238e-02  1.2462087009553521e-02  -1.2878242124569859e-03  -1.1612744584073055e-02  -4.8264701975692511e-03  1.3836733482389054e-02  6.4927868033402636e-03  2.3502816473051582e-04  2.1190826881800282e-03  8.8076340726734410e-04  -2.5250579909581942e-03  -1.1846043717208474e-03  </DataArray> 
</PointData> 
</Piece>
</UnstructuredGrid>
</VTKFile>