<?xml version="1.0"?>
<VTKFile type="UnstructuredGrid"  version="0.1"  >
<UnstructuredGrid>
<Piece  NumberOfPoints="1089" NumberOfCells="1024">
<Points>
<DataArray  type="Float64"  NumberOfComponents="3"  format="ascii">0 0 0  0.03125 0 0  0.0625 0 0  0.09375 0 0  0.125 0 0  0.15625 0 0  0.1875 0 0  0.21875 0 0  0.25 0 0  0.28125 0 0  0.3125 0 0  0.34375 0 0  0.375 0 0  0.40625 0 0  0.4375 0 0  0.46875 0 0  0.5 0 0  0.53125 0 0  0.5625 0 0  0.59375 0 0  0.625 0 0  0.65625 0 0  0.6875 0 0  0.71875 0 0  0.75 0 0  0.78125 0 0  0.8125 0 0  0.84375 0 0  0.875 0 0  0.90625 0 0  0.9375 0 0  0.96875 0 0  1 0 0  0 0.03125 0  0.03125 0.03125 0  0.0625 0.03125 0  0.09375 0.03125 0  0.125 0.03125 0  0.15625 0.03125 0  0.1875 0.03125 0  0.21875 0.03125 0  0.25 0.03125 0  0.28125 0.03125 0  0.3125 0.03125 0  0.34375 0.03125 0  0.375 0.03125 0  0.40625 0.03125 0  0.4375 0.03125 0  0.46875 0.03125 0  0.5 0.03125 0  0.53125 0.03125 0  0.5625 0.03125 0  0.59375 0.03125 0  0.625 0.03125 0  0.65625 0.03125 0  0.6875 0.03125 0  0.71875 0.03125 0  0.75 0.03125 0  0.78125 0.03125 0  0.8125 0.03125 0  0.84375 0.03125 0  0.875 0.03125 0  0.90625 0.03125 0  0.9375 0.03125 0  0.96875 0.03125 0  1 0.03125 0  0 0.0625 0  0.03125 0.0625 0  0.0625 0.0625 0  0.09375 0.0625 0  0.125 0.0625 0  0.15625 0.0625 0  0.1875 0.0625 0  0.21875 0.0625 0  0.25 0.0625 0  0.28125 0.0625 0  0.3125 0.0625 0  0.34375 0.0625 0  0.375 0.0625 0  0.40625 0.0625 0  0.4375 0.0625 0  0.46875 0.0625 0  0.5 0.0625 0  0.53125 0.0625 0  0.5625 0.0625 0  0.59375 0.0625 0  0.625 0.0625 0  0.65625 0.0625 0  0.6875 0.0625 0  0.71875 0.0625 0  0.75 0.0625 0  0.78125 0.0625 0  0.8125 0.0625 0  0.84375 0.0625 0  0.875 0.0625 0  0.90625 0.0625 0  0.9375 0.0625 0  0.96875 0.0625 0  1 0.0625 0  0 0.09375 0  0.03125 0.09375 0  0.0625 0.09375 0  0.09375 0.09375 0  0.125 0.09375 0  0.15625 0.09375 0  0.1875 0.09375 0  0.21875 0.09375 0  0.25 0.09375 0  0.28125 0.09375 0  0.3125 0.09375 0  0.34375 0.09375 0  0.375 0.09375 0  0.40625 0.09375 0  0.4375 0.09375 0  0.46875 0.09375 0  0.5 0.09375 0  0.53125 0.09375 0  0.5625 0.09375 0  0.59375 0.09375 0  0.625 0.09375 0  0.65625 0.09375 0  0.6875 0.09375 0  0.71875 0.09375 0  0.75 0.09375 0  0.78125 0.09375 0  0.8125 0.09375 0  0.84375 0.09375 0  0.875 0.09375 0  0.90625 0.09375 0  0.9375 0.09375 0  0.96875 0.09375 0  1 0.09375 0  0 0.125 0  0.03125 0.125 0  0.0625 0.125 0  0.09375 0.125 0  0.125 0.125 0  0.15625 0.125 0  0.1875 0.125 0  0.21875 0.125 0  0.25 0.125 0  0.28125 0.125 0  0.3125 0.125 0  0.34375 0.125 0  0.375 0.125 0  0.40625 0.125 0  0.4375 0.125 0  0.46875 0.125 0  0.5 0.125 0  0.53125 0.125 0  0.5625 0.125 0  0.59375 0.125 0  0.625 0.125 0  0.65625 0.125 0  0.6875 0.125 0  0.71875 0.125 0  0.75 0.125 0  0.78125 0.125 0  0.8125 0.125 0  0.84375 0.125 0  0.875 0.125 0  0.90625 0.125 0  0.9375 0.125 0  0.96875 0.125 0  1 0.125 0  0 0.15625 0  0.03125 0.15625 0  0.0625 0.15625 0  0.09375 0.15625 0  0.125 0.15625 0  0.15625 0.15625 0  0.1875 0.15625 0  0.21875 0.15625 0  0.25 0.15625 0  0.28125 0.15625 0  0.3125 0.15625 0  0.34375 0.15625 0  0.375 0.15625 0  0.40625 0.15625 0  0.4375 0.15625 0  0.46875 0.15625 0  0.5 0.15625 0  0.53125 0.15625 0  0.5625 0.15625 0  0.59375 0.15625 0  0.625 0.15625 0  0.65625 0.15625 0  0.6875 0.15625 0  0.71875 0.15625 0  0.75 0.15625 0  0.78125 0.15625 0  0.8125 0.15625 0  0.84375 0.15625 0  0.875 0.15625 0  0.90625 0.15625 0  0.9375 0.15625 0  0.96875 0.15625 0  1 0.15625 0  0 0.1875 0  0.03125 0.1875 0  0.0625 0.1875 0  0.09375 0.1875 0  0.125 0.1875 0  0.15625 0.1875 0  0.1875 0.1875 0  0.21875 0.1875 0  0.25 0.1875 0  0.28125 0.1875 0  0.3125 0.1875 0  0.34375 0.1875 0  0.375 0.1875 0  0.40625 0.1875 0  0.4375 0.1875 0  0.46875 0.1875 0  0.5 0.1875 0  0.53125 0.1875 0  0.5625 0.1875 0  0.59375 0.1875 0  0.625 0.1875 0  0.65625 0.1875 0  0.6875 0.1875 0  0.71875 0.1875 0  0.75 0.1875 0  0.78125 0.1875 0  0.8125 0.1875 0  0.84375 0.1875 0  0.875 0.1875 0  0.90625 0.1875 0  0.9375 0.1875 0  0.96875 0.1875 0  1 0.1875 0  0 0.21875 0  0.03125 0.21875 0  0.0625 0.21875 0  0.09375 0.21875 0  0.125 0.21875 0  0.15625 0.21875 0  0.1875 0.21875 0  0.21875 0.21875 0  0.25 0.21875 0  0.28125 0.21875 0  0.3125 0.21875 0  0.34375 0.21875 0  0.375 0.21875 0  0.40625 0.21875 0  0.4375 0.21875 0  0.46875 0.21875 0  0.5 0.21875 0  0.53125 0.21875 0  0.5625 0.21875 0  0.59375 0.21875 0  0.625 0.21875 0  0.65625 0.21875 0  0.6875 0.21875 0  0.71875 0.21875 0  0.75 0.21875 0  0.78125 0.21875 0  0.8125 0.21875 0  0.84375 0.21875 0  0.875 0.21875 0  0.90625 0.21875 0  0.9375 0.21875 0  0.96875 0.21875 0  1 0.21875 0  0 0.25 0  0.03125 0.25 0  0.0625 0.25 0  0.09375 0.25 0  0.125 0.25 0  0.15625 0.25 0  0.1875 0.25 0  0.21875 0.25 0  0.25 0.25 0  0.28125 0.25 0  0.3125 0.25 0  0.34375 0.25 0  0.375 0.25 0  0.40625 0.25 0  0.4375 0.25 0  0.46875 0.25 0  0.5 0.25 0  0.53125 0.25 0  0.5625 0.25 0  0.59375 0.25 0  0.625 0.25 0  0.65625 0.25 0  0.6875 0.25 0  0.71875 0.25 0  0.75 0.25 0  0.78125 0.25 0  0.8125 0.25 0  0.84375 0.25 0  0.875 0.25 0  0.90625 0.25 0  0.9375 0.25 0  0.96875 0.25 0  1 0.25 0  0 0.28125 0  0.03125 0.28125 0  0.0625 0.28125 0  0.09375 0.28125 0  0.125 0.28125 0  0.15625 0.28125 0  0.1875 0.28125 0  0.21875 0.28125 0  0.25 0.28125 0  0.28125 0.28125 0  0.3125 0.28125 0  0.34375 0.28125 0  0.375 0.28125 0  0.40625 0.28125 0  0.4375 0.28125 0  0.46875 0.28125 0  0.5 0.28125 0  0.53125 0.28125 0  0.5625 0.28125 0  0.59375 0.28125 0  0.625 0.28125 0  0.65625 0.28125 0  0.6875 0.28125 0  0.71875 0.28125 0  0.75 0.28125 0  0.78125 0.28125 0  0.8125 0.28125 0  0.84375 0.28125 0  0.875 0.28125 0  0.90625 0.28125 0  0.9375 0.28125 0  0.96875 0.28125 0  1 0.28125 0  0 0.3125 0  0.03125 0.3125 0  0.0625 0.3125 0  0.09375 0.3125 0  0.125 0.3125 0  0.15625 0.3125 0  0.1875 0.3125 0  0.21875 0.3125 0  0.25 0.3125 0  0.28125 0.3125 0  0.3125 0.3125 0  0.34375 0.3125 0  0.375 0.3125 0  0.40625 0.3125 0  0.4375 0.3125 0  0.46875 0.3125 0  0.5 0.3125 0  0.53125 0.3125 0  0.5625 0.3125 0  0.59375 0.3125 0  0.625 0.3125 0  0.65625 0.3125 0  0.6875 0.3125 0  0.71875 0.3125 0  0.75 0.3125 0  0.78125 0.3125 0  0.8125 0.3125 0  0.84375 0.3125 0  0.875 0.3125 0  0.90625 0.3125 0  0.9375 0.3125 0  0.96875 0.3125 0  1 0.3125 0  0 0.34375 0  0.03125 0.34375 0  0.0625 0.34375 0  0.09375 0.34375 0  0.125 0.34375 0  0.15625 0.34375 0  0.1875 0.34375 0  0.21875 0.34375 0  0.25 0.34375 0  0.28125 0.34375 0  0.3125 0.34375 0  0.34375 0.34375 0  0.375 0.34375 0  0.40625 0.34375 0  0.4375 0.34375 0  0.46875 0.34375 0  0.5 0.34375 0  0.53125 0.34375 0  0.5625 0.34375 0  0.59375 0.34375 0  0.625 0.34375 0  0.65625 0.34375 0  0.6875 0.34375 0  0.71875 0.34375 0  0.75 0.34375 0  0.78125 0.34375 0  0.8125 0.34375 0  0.84375 0.34375 0  0.875 0.34375 0  0.90625 0.34375 0  0.9375 0.34375 0  0.96875 0.34375 0  1 0.34375 0  0 0.375 0  0.03125 0.375 0  0.0625 0.375 0  0.09375 0.375 0  0.125 0.375 0  0.15625 0.375 0  0.1875 0.375 0  0.21875 0.375 0  0.25 0.375 0  0.28125 0.375 0  0.3125 0.375 0  0.34375 0.375 0  0.375 0.375 0  0.40625 0.375 0  0.4375 0.375 0  0.46875 0.375 0  0.5 0.375 0  0.53125 0.375 0  0.5625 0.375 0  0.59375 0.375 0  0.625 0.375 0  0.65625 0.375 0  0.6875 0.375 0  0.71875 0.375 0  0.75 0.375 0  0.78125 0.375 0  0.8125 0.375 0  0.84375 0.375 0  0.875 0.375 0  0.90625 0.375 0  0.9375 0.375 0  0.96875 0.375 0  1 0.375 0  0 0.40625 0  0.03125 0.40625 0  0.0625 0.40625 0  0.09375 0.40625 0  0.125 0.40625 0  0.15625 0.40625 0  0.1875 0.40625 0  0.21875 0.40625 0  0.25 0.40625 0  0.28125 0.40625 0  0.3125 0.40625 0  0.34375 0.40625 0  0.375 0.40625 0  0.40625 0.40625 0  0.4375 0.40625 0  0.46875 0.40625 0  0.5 0.40625 0  0.53125 0.40625 0  0.5625 0.40625 0  0.59375 0.40625 0  0.625 0.40625 0  0.65625 0.40625 0  0.6875 0.40625 0  0.71875 0.40625 0  0.75 0.40625 0  0.78125 0.40625 0  0.8125 0.40625 0  0.84375 0.40625 0  0.875 0.40625 0  0.90625 0.40625 0  0.9375 0.40625 0  0.96875 0.40625 0  1 0.40625 0  0 0.4375 0  0.03125 0.4375 0  0.0625 0.4375 0  0.09375 0.4375 0  0.125 0.4375 0  0.15625 0.4375 0  0.1875 0.4375 0  0.21875 0.4375 0  0.25 0.4375 0  0.28125 0.4375 0  0.3125 0.4375 0  0.34375 0.4375 0  0.375 0.4375 0  0.40625 0.4375 0  0.4375 0.4375 0  0.46875 0.4375 0  0.5 0.4375 0  0.53125 0.4375 0  0.5625 0.4375 0  0.59375 0.4375 0  0.625 0.4375 0  0.65625 0.4375 0  0.6875 0.4375 0  0.71875 0.4375 0  0.75 0.4375 0  0.78125 0.4375 0  0.8125 0.4375 0  0.84375 0.4375 0  0.875 0.4375 0  0.90625 0.4375 0  0.9375 0.4375 0  0.96875 0.4375 0  1 0.4375 0  0 0.46875 0  0.03125 0.46875 0  0.0625 0.46875 0  0.09375 0.46875 0  0.125 0.46875 0  0.15625 0.46875 0  0.1875 0.46875 0  0.21875 0.46875 0  0.25 0.46875 0  0.28125 0.46875 0  0.3125 0.46875 0  0.34375 0.46875 0  0.375 0.46875 0  0.40625 0.46875 0  0.4375 0.46875 0  0.46875 0.46875 0  0.5 0.46875 0  0.53125 0.46875 0  0.5625 0.46875 0  0.59375 0.46875 0  0.625 0.46875 0  0.65625 0.46875 0  0.6875 0.46875 0  0.71875 0.46875 0  0.75 0.46875 0  0.78125 0.46875 0  0.8125 0.46875 0  0.84375 0.46875 0  0.875 0.46875 0  0.90625 0.46875 0  0.9375 0.46875 0  0.96875 0.46875 0  1 0.46875 0  0 0.5 0  0.03125 0.5 0  0.0625 0.5 0  0.09375 0.5 0  0.125 0.5 0  0.15625 0.5 0  0.1875 0.5 0  0.21875 0.5 0  0.25 0.5 0  0.28125 0.5 0  0.3125 0.5 0  0.34375 0.5 0  0.375 0.5 0  0.40625 0.5 0  0.4375 0.5 0  0.46875 0.5 0  0.5 0.5 0  0.53125 0.5 0  0.5625 0.5 0  0.59375 0.5 0  0.625 0.5 0  0.65625 0.5 0  0.6875 0.5 0  0.71875 0.5 0  0.75 0.5 0  0.78125 0.5 0  0.8125 0.5 0  0.84375 0.5 0  0.875 0.5 0  0.90625 0.5 0  0.9375 0.5 0  0.96875 0.5 0  1 0.5 0  0 0.53125 0  0.03125 0.53125 0  0.0625 0.53125 0  0.09375 0.53125 0  0.125 0.53125 0  0.15625 0.53125 0  0.1875 0.53125 0  0.21875 0.53125 0  0.25 0.53125 0  0.28125 0.53125 0  0.3125 0.53125 0  0.34375 0.53125 0  0.375 0.53125 0  0.40625 0.53125 0  0.4375 0.53125 0  0.46875 0.53125 0  0.5 0.53125 0  0.53125 0.53125 0  0.5625 0.53125 0  0.59375 0.53125 0  0.625 0.53125 0  0.65625 0.53125 0  0.6875 0.53125 0  0.71875 0.53125 0  0.75 0.53125 0  0.78125 0.531
[...]
<PointData  Scalars="u_sol"> 
<DataArray  type="Float64"  Name="u_sol"  format="ascii">-2.3818891098549724e-05  -1.0096894754994992e-04  5.2715853684832069e-04  1.2073173365505100e-03  1.4605640656817206e-03  1.5994216955561153e-03  2.5500534426667514e-03  3.0880168561049962e-03  4.3099280926534754e-03  9.8415533160198174e-03  1.7279414103205919e-02  2.1813375809695362e-02  2.0881185301249414e-02  1.3537812684881070e-02  7.0514355898301892e-04  -1.4891264764926120e-02  -2.7817033877086655e-02  -3.4211549233094954e-02  -3.3455248641419112e-02  -2.4842031729016160e-02  -9.3134875378266032e-03  9.0695966837974797e-03  2.4573145464335078e-02  3.2541975894909397e-02  3.3207036306682418e-02  2.7485305032199772e-02  1.5858351362061009e-02  6.1342023066805300e-03  1.6634641281019426e-03  -2.2853773847610198e-04  -4.5735454829402529e-04  -3.4825967295954482e-04  3.2148985032656561e-05  -3.9983772243846056e-04  1.9290445040982865e-03  7.6916531126002717e-03  1.3041700261287278e-02  1.5571462844894558e-02  1.6050542267617630e-02  1.5348085845049007e-02  1.4786684180573906e-02  9.7051281177969392e-03  -1.0981389105046103e-02  -5.2204134347979436e-02  -1.0975953651829182e-01  -1.7414299819105727e-01  -2.3479985677521351e-01  -2.8344913133811417e-01  -3.1508719758923220e-01  -3.2866553651361657e-01  -3.2426285100730456e-01  -3.0114307791879308e-01  -2.5973815053053334e-01  -2.0220572978329768e-01  -1.3342688881670164e-01  -6.2515837108917602e-02  -1.5738493104600984e-03  3.9115409776564226e-02  5.9083777413851173e-02  6.3671209875390017e-02  5.3033002368735267e-02  3.4315059578578395e-02  1.8261321345457496e-02  7.5124192747707394e-03  1.6631544285983478e-03  -3.3616915636126951e-04  -7.7609503868047330e-04  3.7518536226602943e-03  1.1926107791765421e-02  1.6876922526668316e-02  1.6502202060551457e-02  1.2465715558322236e-02  4.1943899989774327e-03  -2.0945715049842700e-02  -7.4922619418470504e-02  -1.5270014193506304e-01  -2.3760739913938744e-01  -3.1347464561883076e-01  -3.7175897199205354e-01  -4.1119585810253562e-01  -4.3490020404245860e-01  -4.4737777592955158e-01  -4.5168716981390317e-01  -4.4830493401996946e-01  -4.3645514212717290e-01  -4.1432932147978291e-01  -3.7849520728826430e-01  -3.2510408483621450e-01  -2.5301707229868253e-01  -1.6851031244715187e-01  -8.7447279123125166e-02  -2.8266891663573414e-02  5.1778970710422804e-03  2.4448089306120628e-02  3.0208270254428165e-02  2.2845426086174080e-02  1.2451534537244756e-02  3.7018042023550463e-03  -6.6149455548041199e-04  -1.1828859588723830e-03  5.9499622977039575e-03  1.4865688419957723e-02  1.4331138781618307e-02  6.3795568692672491e-03  -9.7660706704643611e-03  -5.1302018143729602e-02  -1.2695714235698760e-01  -2.2107085246380370e-01  -3.0920387478321321e-01  -3.7551980345620856e-01  -4.1756888213563359e-01  -4.4121962641328499e-01  -4.5417227771386826e-01  -4.6164147910154257e-01  -4.6551318870693448e-01  -4.6621321599424481e-01  -4.6494968971623418e-01  -4.6273754589059474e-01  -4.5900935180227542e-01  -4.5130680217856356e-01  -4.3357469978362401e-01  -3.9588097728726279e-01  -3.2898542335684722e-01  -2.3430932444521235e-01  -1.3203849484566285e-01  -5.4069467032915493e-02  -1.5073368208161393e-02  3.5819219593215225e-03  1.2184547884062367e-02  9.6507788395309296e-03  3.3115301679754478e-03  -6.4213389779580235e-04  -1.5542784664715097e-03  7.9841114520715316e-03  1.2496969863676877e-02  2.2266991115998066e-03  -1.9107187632871482e-02  -6.8287656265552818e-02  -1.5306727428881764e-01  -2.5106367462478529e-01  -3.3303163755687870e-01  -3.8484954862073112e-01  -4.0963568874733253e-01  -4.1791841027806115e-01  -4.1864728289625031e-01  -4.1615240781358492e-01  -4.1197416069619464e-01  -4.0743707131671669e-01  -4.0406200509316031e-01  -4.0213671141935931e-01  -4.0166547009164683e-01  -4.0392546935779855e-01  -4.1037392278527907e-01  -4.2047981199232060e-01  -4.2774647173559216e-01  -4.1642064066070272e-01  -3.6654284467453752e-01  -2.7102278987661521e-01  -1.5247764585485696e-01  -5.7249850704683296e-02  -1.4245194011542469e-02  -6.3806820270280408e-04  4.2008663145080526e-03  1.7498178821266665e-03  -3.1493680244950304e-04  -1.0148698351886136e-03  7.1999610646796223e-03  1.5367552470892762e-03  -2.1517297917541520e-02  -7.0161740851051604e-02  -1.5453404877639679e-01  -2.5084985537691223e-01  -3.2609623437044788e-01  -3.6630360227912706e-01  -3.7875866208753878e-01  -3.7745748281745928e-01  -3.7212840653599638e-01  -3.6696792813432716e-01  -3.6360597065457173e-01  -3.6257927398251899e-01  -3.6297723862375092e-01  -3.6284740084241385e-01  -3.6128089161710331e-01  -3.5861950187240688e-01  -3.5555113259165522e-01  -3.5399566309390973e-01  -3.5787372206001061e-01  -3.7152875540737357e-01  -3.9275207233606946e-01  -4.0320255031459995e-01  -3.7143128697012534e-01  -2.7913947294964664e-01  -1.5046275854787156e-01  -4.6352304998211420e-02  -6.5831670823222029e-03  2.3423018058312957e-04  1.2355977564762941e-03  -4.3632200100722284e-04  4.1316398480480994e-04  1.4009898972757266e-03  -1.7168966524975435e-02  -6.0557084180777536e-02  -1.3732428070385716e-01  -2.2946305786367213e-01  -3.0137235239536997e-01  -3.3601757193282117e-01  -3.4228851050366865e-01  -3.3712825117500866e-01  -3.3133539555295544e-01  -3.2893827307366896e-01  -3.3053155407718715e-01  -3.3457812954983279e-01  -3.3852589803204730e-01  -3.4076481253401647e-01  -3.4149858560420449e-01  -3.4125740661942355e-01  -3.4000941394107775e-01  -3.3742440606518331e-01  -3.3282398103591593e-01  -3.2624591660260122e-01  -3.2143675082022960e-01  -3.2767023675243567e-01  -3.5084721448549505e-01  -3.7363710816280221e-01  -3.5344227961880287e-01  -2.6133147629273973e-01  -1.2649827008020650e-01  -2.6155257435260704e-02  3.8789097156201666e-04  5.3936471247584012e-04  3.5993264106813985e-04  1.9938305545128916e-03  -8.1470107631759891e-03  -4.2923181740277143e-02  -1.0803954640701501e-01  -1.9317302340189851e-01  -2.6522799544642067e-01  -3.0084672157960557e-01  -3.0610313349805574e-01  -3.0019184988846365e-01  -2.9566729204823022e-01  -2.9617679343123554e-01  -3.0062693129911550e-01  -3.0562407723665647e-01  -3.0847240194941722e-01  -3.0916270616746988e-01  -3.0911949013140694e-01  -3.0908386748739092e-01  -3.0917154601416141e-01  -3.0956870386279572e-01  -3.1045418980827216e-01  -3.1154376507161796e-01  -3.1103073617506360e-01  -3.0569359834116966e-01  -2.9594790123562148e-01  -2.9373046363176114e-01  -3.1391331617667911e-01  -3.4090533589007821e-01  -3.2110143401033758e-01  -2.2096482694937811e-01  -8.4359002989834175e-02  -5.4998088685559495e-03  1.9039007036637512e-03  -6.2456147578815837e-04  3.4900252047626056e-03  -1.9211623663297029e-02  -7.1570756063045388e-02  -1.4638142475375016e-01  -2.1928918623606827e-01  -2.6148287293766248e-01  -2.7067763455314070e-01  -2.6559825428893058e-01  -2.6194031034212428e-01  -2.6385141146772639e-01  -2.6901428927614590e-01  -2.7315507292536528e-01  -2.7430238839492049e-01  -2.7402657675101988e-01  -2.7410270167771927e-01  -2.7454384535390930e-01  -2.7490495294355427e-01  -2.7505660086283507e-01  -2.7498671318511581e-01  -2.7498159870809452e-01  -2.7588458841681845e-01  -2.7877124176693224e-01  -2.8247742540495729e-01  -2.8108410349197038e-01  -2.7045978869994736e-01  -2.6388776207012926e-01  -2.8315949214196701e-01  -3.0890935816104653e-01  -2.7608537121296534e-01  -1.6039879256535983e-01  -3.4513984163205412e-02  3.8442070608858464e-03  -1.8076732240109960e-03  4.8508054137287497e-03  -2.9992959838244286e-02  -9.3412271736996344e-02  -1.6372002617534534e-01  -2.1540498912903361e-01  -2.3388037618856561e-01  -2.3202326751110292e-01  -2.2851769428935462e-01  -2.3057517668800834e-01  -2.3575502054610339e-01  -2.3939885641142997e-01  -2.4005880628636148e-01  -2.4019359697801096e-01  -2.4151362617020819e-01  -2.4328142425003754e-01  -2.4476370403186903e-01  -2.4585875121121439e-01  -2.4653638435904326e-01  -2.4684944188194580e-01  -2.4665109869226348e-01  -2.4567196875206496e-01  -2.4465091142333431e-01  -2.4632523909317772e-01  -2.5155292123379780e-01  -2.5253240144806877e-01  -2.4148444799317217e-01  -2.3510281315164583e-01  -2.5756924131422659e-01  -2.7428701470169353e-01  -2.1396932918665451e-01  -8.4849195970822897e-02  4.7367779753321740e-04  1.4045257692769646e-04  5.6495422033536495e-03  -3.6951428779967065e-02  -1.0200406700239885e-01  -1.5957712433516416e-01  -1.9195363662075562e-01  -1.9776936560938904e-01  -1.9510876877365677e-01  -1.9636937156977710e-01  -2.0143294891150473e-01  -2.0540560980364458e-01  -2.0646273654474542e-01  -2.0719189594525300e-01  -2.0931736487240032e-01  -2.1163385119667191e-01  -2.1325953879055107e-01  -2.1442903253490439e-01  -2.1538189181549491e-01  -2.1628861645032035e-01  -2.1722414164759143e-01  -2.1825724060943855e-01  -2.1913633206346250e-01  -2.1865850063394721e-01  -2.1645748330467393e-01  -2.1652762084972346e-01  -2.2174824542492344e-01  -2.2210760780423172e-01  -2.0945652266080622e-01  -2.0855966706416695e-01  -2.3472051865063939e-01  -2.2725604486132048e-01  -1.2993655770913179e-01  -1.7377828364777900e-02  5.1876126906207692e-03  5.8879415913306353e-03  -3.8045762083947499e-02  -9.7244865045067713e-02  -1.4052244040373785e-01  -1.5991688603870327e-01  -1.6151194454271697e-01  -1.6182082529889286e-01  -1.6632006551408535e-01  -1.7111356536357328e-01  -1.7317067129678110e-01  -1.7430393599928545e-01  -1.7665848036683868e-01  -1.7916537336087598e-01  -1.8075129558342223e-01  -1.8191072314306495e-01  -1.8303966555030196e-01  -1.8415351086663109e-01  -1.8521223079081703e-01  -1.8616380192968604e-01  -1.8706451428639342e-01  -1.8835903232663295e-01  -1.9026663809066596e-01  -1.9082785168930211e-01  -1.8838954976341765e-01  -1.8821519769476228e-01  -1.9325335346468028e-01  -1.8979253195095783e-01  -1.7667513957301609e-01  -1.8709180907990061e-01  -2.0607079142033230e-01  -1.5342057282248309e-01  -3.8477066743518792e-02  1.0774513250721710e-02  5.5623667689819589e-03  -3.3718446931188202e-02  -8.2977215393357298e-02  -1.1405014194485252e-01  -1.2620274971520509e-01  -1.2777797408758648e-01  -1.3092530351839157e-01  -1.3626896463765814e-01  -1.3977148729181943e-01  -1.4145054336666196e-01  -1.4368560175423539e-01  -1.4633946253093838e-01  -1.4814477043102547e-01  -1.4948909258963605e-01  -1.5099659486887287e-01  -1.5256943776574569e-01  -1.5404999060494673e-01  -1.5541397876083959e-01  -1.5669461410844088e-01  -1.5778952047856015e-01  -1.5846713282125183e-01  -1.5945352067324076e-01  -1.6174067536166825e-01  -1.6259193280576290e-01  -1.5999206981494957e-01  -1.6114796061703135e-01  -1.6478428875346274e-01  -1.5491076768710632e-01  -1.4848384453563573e-01  -1.6831351369841271e-01  -1.5263636745645015e-01  -5.3197680540472962e-02  1.3766979412803887e-02  4.8588108891141537e-03  -2.5755117009083176e-02  -6.3620335978331735e-02  -8.5401413424121067e-02  -9.3835828745249469e-02  -9.6568005996537795e-02  -1.0111023305047048e-01  -1.0594202270880677e-01  -1.0867273083633931e-01  -1.1078754482864944e-01  -1.1340335619452685e-01  -1.1558038794715318e-01  -1.1714383752355989e-01  -1.1880808413711699e-01  -1.2058417551372018e-01  -1.2220695671686553e-01  -1.2373675387921766e-01  -1.2528130943515609e-01  -1.2684757337735919e-01  -1.2853126423374625e-01  -1.3016425230448983e-01  -1.3097893042934286e-01  -1.3191053334905173e-01  -1.3441948162689249e-01  -1.3450408273924716e-01  -1.3223749504853136e-01  -1.3562277940281511e-01  -1.3375742526837037e-01  -1.2082726649008295e-01  -1.2965556741480452e-01  -1.3473274022745482e-01  -5.9698151435349234e-02  1.3731127901728642e-02  3.7590403808734725e-03  -1.5918568614182810e-02  -4.2484521095141253e-02  -5.7186804692033348e-02  -6.3581858781990963e-02  -6.7179842102054452e-02  -7.1828765789294799e-02  -7.5826628493010084e-02  -7.8302863724178315e-02  -8.0656139943197078e-02  -8.3050279706401497e-02  -8.4889756841612915e-02  -8.6545791144940126e-02  -8.8332313741281462e-02  -9.0017009191766195e-02  -9.1601934558630957e-02  -9.3255874865323107e-02  -9.4993558042585385e-02  -9.6789931004565538e-02  -9.8592351919655319e-02  -1.0066739469481327e-01  -1.0290998053509527e-01  -1.0404740372480729e-01  -1.0559419636269854e-01  -1.0820161618078146e-01  -1.0682208704605053e-01  -1.0696643856214853e-01  -1.1004911592039765e-01  -9.9511656875446899e-02  -9.7408073517485524e-02  -1.0988984697839942e-01  -5.8752942376350883e-02  1.1893629033750909e-02  2.4375171080534483e-03  -5.8088741581922365e-03  -2.1116777532891203e-02  -3.0382305261194745e-02  -3.5149938865456754e-02  -3.9038580617293581e-02  -4.3034628936470233e-02  -4.6254457775600735e-02  -4.8554551322099376e-02  -5.0783607812456277e-02  -5.2805021219492293e-02  -5.4472206967115189e-02  -5.6117499953265988e-02  -5.7777628307784080e-02  -5.9371848953492741e-02  -6.1049363600468781e-02  -6.2883677964459206e-02  -6.4839203557262137e-02  -6.6939393516414217e-02  -6.9176109330794155e-02  -7.1332128183081586e-02  -7.3879790441678889e-02  -7.6583042586824565e-02  -7.8094370599309335e-02  -8.0937136409571134e-02  -8.2593376910505154e-02  -8.1129775622345066e-02  -8.5044089745536233e-02  -8.0507828927469410e-02  -7.2353635744182035e-02  -8.5054605831662355e-02  -5.3245210952383042e-02  9.5121288641649288e-03  2.7992411669847529e-04  4.8814165912188625e-03  -6.8195008503654450e-04  -4.5397001219223219e-03  -8.1864545934449556e-03  -1.1599133352680075e-02  -1.4759829108790463e-02  -1.7160682977210202e-02  -1.9219166913171288e-02  -2.1076425397476319e-02  -2.2730359292287877e-02  -2.4188539896256064e-02  -2.5664026306331762e-02  -2.7146926411197564e-02  -2.8693670037938036e-02  -3.0417152033435136e-02  -3.2328102508887631e-02  -3.4458641796629060e-02  -3.6827392246630897e-02  -3.9467262513262658e-02  -4.2373841437841744e-02  -4.5161235007400255e-02  -4.8525199118983620e-02  -5.1526963956821145e-02  -5.4101876764552539e-02  -5.8030593959597289e-02  -5.7876657094088693e-02  -6.0739000080840114e-02  -6.1975673225906011e-02  -5.2782581416830100e-02  -6.3463670836796077e-02  -4.5943175270915092e-02  7.3195264268293278e-03  -1.2725025827971159e-03  1.5029195037122503e-02  1.9263772230769659e-02  2.0248869261994165e-02  1.8312067522820833e-02  1.5139926168693495e-02  1.3216547451403595e-02  1.1468930760803834e-02  9.8746642780538265e-03  8.4256967918764341e-03  7.2295009715141806e-03  6.0308044174272385e-03  4.8223427239360338e-03  3.5523206999303033e-03  2.1064884574356472e-03  4.2493956015964506e-04  -1.5357088989905675e-03  -3.8189626452528151e-03  -6.4745950973762170e-03  -9.4700478417111267e-03  -1.2872777673505928e-02  -1.6623465920934447e-02  -2.0422225946390447e-02  -2.4819273664443937e-02  -2.8321269642160304e-02  -3.3150298899561260e-02  -3.5942135648913714e-02  -3.8259460651256176e-02  -4.3525347323731145e-02  -3.6852792749362914e-02  -4.5776049212640696e-02  -3.8647734548838311e-02  5.5031446139818347e-03  -2.9515846636861895e-03  2.3307294702594072e-02  3.8921845465729410e-02  4.4169149579264926e-02  4.4825848620897973e-02  4.1574323898085679e-02  4.0795052837999272e-02  3.9854889072641550e-02  3.8692830720858676e-02  3.7750080188287981e-02  3.7034902947593998e-02  3.6253383533967558e-02  3.5350261686213261e-02  3.4370052342826619e-02  3.3121908611733968e-02  3.1531435237688400e-02  2.9568189532099210e-02  2.7148514597484980e-02  2.4249133616189841e-02  2.0770058828370231e-02  1.6862738956906754e-02  1.2396881694108880e-02  7.5500083482498113e-03  2.2927979879140128e-03  -3.0509211763940849e-03  -8.5739266571255145e-03  -1.4240479241546112e-02  -1.7702361656146432e-02  -2.5378348999240977e-02  -2.3099629809009550e-02  -3.1559471219183725e-02  -3.2307008955756264e-02  3.8879578951443129e-03  -4.8582818061020340e-03  2.9188398774983602e-02  5.7770567316010539e-02  6.7824663145168926e-02  7.1372827501833380e-02  6.8551797562820108e-02  6.7993416305232118e-02  6.8312211048029814e-02  6.7539272488125648e-02  6.7125097435572711e-02  6.6930493391278392e-02  6.6654130075450110e-02  6.6173245553170015e-02  6.5524208914762322e-02  6.4570543781391668e-02  6.3148849266894860e-02  6.1201370975906257e-02  5.8672561935340095e-02  5.5472223769541279e-02  5.1590650241518481e-02  4.7034668960345118e-02  4.1852197122015627e-02  3.5861801468154292e-02  2.9576550973997261e-02  2.2450540443620687e-02  1.5501760794834547e-02  7.6469916517203137e-03  1.5577887910216417e-03  -7.8599403941792198e-03  -1.0475957270757211e-02  -2.0088293906416241e-02  -2.7073305050995321e-02  2.2281088682660484e-03  -6.3094719892897774e-03  3.2256643005546974e-02  7.4441429055781300e-02  9.1332402180404351e-02  9.7768421752842713e-02  9.6181160029256113e-02  9.4820941958428648e-02  9.6273873087045006e-02  9.6353720377486060e-02  9.6199594832321281e-02  9.6677975500244429e-02  9.7014205894336639e-02  9.7057958680507331e-02  9.6832511680944616e-02  9.6254540968522845e-02  9.5129391898796337e-02  9.3323775426380068e-02  9.0752128073096017e-02  8.7344381741767937e-02  8.3115162488362468e-02  7.8009816249935901e-02  7.1854106219244207e-02  6.4848426043747145e-02  5.7183175429954207e-02  4.8489876665453770e-02  3.9421142355499345e-02  2.9811086362076265e-02  2.0203600911503666e-02  9.0932922744726783e-03  1.5214264356769259e-03  -1.0337883196318596e-02  -2.2586438245223724e-02  7.1802182338529951e-04  -6.8443409533562377e-03  3.1692834735055374e-02  8.6749770363590981e-02  1.1394116001963736e-01  1.2376177052786580e-01  1.2438026502324211e-01  1.2223280001125132e-01  1.2356400789998841e-01  1.2521095483322439e-01  1.2544743292386407e-01  1.2630266925742731e-01  1.2755947127067421e-01  1.2837311896531786e-01  1.2870487648673545e-01  1.2855492265515503e-01  1.2778762749944744e-01  1.2621883206213244e-01  1.2371789429172712e-01  1.2022423915958137e-01  1.1564097662428309e-01  1.0977293028883227e-01  1.0270863941970726e-01  9.4725367995552520e-02  8.5584919430199191e-02  7.5042932281985039e-02  6.3878301394357379e-02  5.2252478739159051e-02  3.8837070993830450e-02  2.5807708934991853e-02  1.3192699575216198e-02  -1.2956669442850618e-03  -1.8350510476967469e-02  -7.0567980176984219e-05  -6.4614439947058584e-03  2.7208945698030684e-02  9.1837481183900491e-02  1.3348321366821317e-01  1.4932131628484160e-01  1.5277478275989137e-01  1.5078840031758931e-01  1.5085595142819624e-01  1.5378264316830917e-01  1.5554618818277843e-01  1.5658688744395810e-01  1.5838027029472501e-01  1.6026828137612245e-01  1.6150964376576149e-01  1.6198662064515065e-01  1.6163412712490147e-01  1.6032554489725939e-01  1.5788870943062439e-01  1.5418795316346462e-01  1.4908287688763100e-01  1.4257861340464439e-01  1.3490128549193761e-01  1.2585479356187054e-01  1.1489024350922190e-01  1.0243746037031749e-01  8.9447140412186446e-02  7.5123016736872716e-02  5.8028840737322285e-02  4.2342945569975886e-02  2.5429698221394775e-02  7.0972204413761175e-03  -1.3935525998820536e-02  -2.2154861243796789e-04  -4.5390055730730279e-03  1.9049939157816949e-02  8.6197454979930380e-02  1.4520392201929092e-01  1.7198180251158535e-01  1.7928156060361622e-01  1.7890143499868297e-01  1.7751220750281760e-01  1.7983215017071738e-01  1.8375545102285137e-01  1.8636958753178087e-01  1.8856138689572449e-01  1.9116678661643152e-01  1.9358082779892374e-01  1.9515415626631941e-01  1.9563318898345122e-01  1.9486428452767590e-01  1.9274122271070876e-01  1.8912011716080149e-01  1.8395037036637374e-01  1.7725283580013676e-01  1.6881247629531143e-01  1.5811573474495710e-01  1.4525748539062833e-01  1.3147006337611861e-01  1.1656779782706311e-01  9.8638036514400923e-02  7.7991721449777215e-02  5.9324676372230156e-02  3.8605245724108207e-02  1.4629301438252139e-02  -9.4860381524807368e-03  -1.4378634761496640e-04  -2.7118097839315520e-03  9.6892433340204243e-03  7.0675281932788908e-02  1.4411780961424714e-01  1.8855382518100347e-01  2.0478075855936254e-01  2.0765598683746569e-01  2.0669837856568918e-01  2.0753527532652222e-01  2.1196725089806404e-01  2.1729296448665725e-01  2.2143952722142102e-01  2.2486020136226106e-01  2.2799171593217210e-01  2.3047375089228611e-01  2.3181587028386982e-01  2.3172874