<?xml version="1.0"?>
<VTKFile type="UnstructuredGrid"  version="0.1"  >
<UnstructuredGrid>
<Piece  NumberOfPoints="1089" NumberOfCells="1024">
<Points>
<DataArray  type="Float64"  NumberOfComponents="3"  format="ascii">0 0 0  0.03125 0 0  0.0625 0 0  0.09375 0 0  0.125 0 0  0.15625 0 0  0.1875 0 0  0.21875 0 0  0.25 0 0  0.28125 0 0  0.3125 0 0  0.34375 0 0  0.375 0 0  0.40625 0 0  0.4375 0 0  0.46875 0 0  0.5 0 0  0.53125 0 0  0.5625 0 0  0.59375 0 0  0.625 0 0  0.65625 0 0  0.6875 0 0  0.71875 0 0  0.75 0 0  0.78125 0 0  0.8125 0 0  0.84375 0 0  0.875 0 0  0.90625 0 0  0.9375 0 0  0.96875 0 0  1 0 0  0 0.03125 0  0.03125 0.03125 0  0.0625 0.03125 0  0.09375 0.03125 0  0.125 0.03125 0  0.15625 0.03125 0  0.1875 0.03125 0  0.21875 0.03125 0  0.25 0.03125 0  0.28125 0.03125 0  0.3125 0.03125 0  0.34375 0.03125 0  0.375 0.03125 0  0.40625 0.03125 0  0.4375 0.03125 0  0.46875 0.03125 0  0.5 0.03125 0  0.53125 0.03125 0  0.5625 0.03125 0  0.59375 0.03125 0  0.625 0.03125 0  0.65625 0.03125 0  0.6875 0.03125 0  0.71875 0.03125 0  0.75 0.03125 0  0.78125 0.03125 0  0.8125 0.03125 0  0.84375 0.03125 0  0.875 0.03125 0  0.90625 0.03125 0  0.9375 0.03125 0  0.96875 0.03125 0  1 0.03125 0  0 0.0625 0  0.03125 0.0625 0  0.0625 0.0625 0  0.09375 0.0625 0  0.125 0.0625 0  0.15625 0.0625 0  0.1875 0.0625 0  0.21875 0.0625 0  0.25 0.0625 0  0.28125 0.0625 0  0.3125 0.0625 0  0.34375 0.0625 0  0.375 0.0625 0  0.40625 0.0625 0  0.4375 0.0625 0  0.46875 0.0625 0  0.5 0.0625 0  0.53125 0.0625 0  0.5625 0.0625 0  0.59375 0.0625 0  0.625 0.0625 0  0.65625 0.0625 0  0.6875 0.0625 0  0.71875 0.0625 0  0.75 0.0625 0  0.78125 0.0625 0  0.8125 0.0625 0  0.84375 0.0625 0  0.875 0.0625 0  0.90625 0.0625 0  0.9375 0.0625 0  0.96875 0.0625 0  1 0.0625 0  0 0.09375 0  0.03125 0.09375 0  0.0625 0.09375 0  0.09375 0.09375 0  0.125 0.09375 0  0.15625 0.09375 0  0.1875 0.09375 0  0.21875 0.09375 0  0.25 0.09375 0  0.28125 0.09375 0  0.3125 0.09375 0  0.34375 0.09375 0  0.375 0.09375 0  0.40625 0.09375 0  0.4375 0.09375 0  0.46875 0.09375 0  0.5 0.09375 0  0.53125 0.09375 0  0.5625 0.09375 0  0.59375 0.09375 0  0.625 0.09375 0  0.65625 0.09375 0  0.6875 0.09375 0  0.71875 0.09375 0  0.75 0.09375 0  0.78125 0.09375 0  0.8125 0.09375 0  0.84375 0.09375 0  0.875 0.09375 0  0.90625 0.09375 0  0.9375 0.09375 0  0.96875 0.09375 0  1 0.09375 0  0 0.125 0  0.03125 0.125 0  0.0625 0.125 0  0.09375 0.125 0  0.125 0.125 0  0.15625 0.125 0  0.1875 0.125 0  0.21875 0.125 0  0.25 0.125 0  0.28125 0.125 0  0.3125 0.125 0  0.34375 0.125 0  0.375 0.125 0  0.40625 0.125 0  0.4375 0.125 0  0.46875 0.125 0  0.5 0.125 0  0.53125 0.125 0  0.5625 0.125 0  0.59375 0.125 0  0.625 0.125 0  0.65625 0.125 0  0.6875 0.125 0  0.71875 0.125 0  0.75 0.125 0  0.78125 0.125 0  0.8125 0.125 0  0.84375 0.125 0  0.875 0.125 0  0.90625 0.125 0  0.9375 0.125 0  0.96875 0.125 0  1 0.125 0  0 0.15625 0  0.03125 0.15625 0  0.0625 0.15625 0  0.09375 0.15625 0  0.125 0.15625 0  0.15625 0.15625 0  0.1875 0.15625 0  0.21875 0.15625 0  0.25 0.15625 0  0.28125 0.15625 0  0.3125 0.15625 0  0.34375 0.15625 0  0.375 0.15625 0  0.40625 0.15625 0  0.4375 0.15625 0  0.46875 0.15625 0  0.5 0.15625 0  0.53125 0.15625 0  0.5625 0.15625 0  0.59375 0.15625 0  0.625 0.15625 0  0.65625 0.15625 0  0.6875 0.15625 0  0.71875 0.15625 0  0.75 0.15625 0  0.78125 0.15625 0  0.8125 0.15625 0  0.84375 0.15625 0  0.875 0.15625 0  0.90625 0.15625 0  0.9375 0.15625 0  0.96875 0.15625 0  1 0.15625 0  0 0.1875 0  0.03125 0.1875 0  0.0625 0.1875 0  0.09375 0.1875 0  0.125 0.1875 0  0.15625 0.1875 0  0.1875 0.1875 0  0.21875 0.1875 0  0.25 0.1875 0  0.28125 0.1875 0  0.3125 0.1875 0  0.34375 0.1875 0  0.375 0.1875 0  0.40625 0.1875 0  0.4375 0.1875 0  0.46875 0.1875 0  0.5 0.1875 0  0.53125 0.1875 0  0.5625 0.1875 0  0.59375 0.1875 0  0.625 0.1875 0  0.65625 0.1875 0  0.6875 0.1875 0  0.71875 0.1875 0  0.75 0.1875 0  0.78125 0.1875 0  0.8125 0.1875 0  0.84375 0.1875 0  0.875 0.1875 0  0.90625 0.1875 0  0.9375 0.1875 0  0.96875 0.1875 0  1 0.1875 0  0 0.21875 0  0.03125 0.21875 0  0.0625 0.21875 0  0.09375 0.21875 0  0.125 0.21875 0  0.15625 0.21875 0  0.1875 0.21875 0  0.21875 0.21875 0  0.25 0.21875 0  0.28125 0.21875 0  0.3125 0.21875 0  0.34375 0.21875 0  0.375 0.21875 0  0.40625 0.21875 0  0.4375 0.21875 0  0.46875 0.21875 0  0.5 0.21875 0  0.53125 0.21875 0  0.5625 0.21875 0  0.59375 0.21875 0  0.625 0.21875 0  0.65625 0.21875 0  0.6875 0.21875 0  0.71875 0.21875 0  0.75 0.21875 0  0.78125 0.21875 0  0.8125 0.21875 0  0.84375 0.21875 0  0.875 0.21875 0  0.90625 0.21875 0  0.9375 0.21875 0  0.96875 0.21875 0  1 0.21875 0  0 0.25 0  0.03125 0.25 0  0.0625 0.25 0  0.09375 0.25 0  0.125 0.25 0  0.15625 0.25 0  0.1875 0.25 0  0.21875 0.25 0  0.25 0.25 0  0.28125 0.25 0  0.3125 0.25 0  0.34375 0.25 0  0.375 0.25 0  0.40625 0.25 0  0.4375 0.25 0  0.46875 0.25 0  0.5 0.25 0  0.53125 0.25 0  0.5625 0.25 0  0.59375 0.25 0  0.625 0.25 0  0.65625 0.25 0  0.6875 0.25 0  0.71875 0.25 0  0.75 0.25 0  0.78125 0.25 0  0.8125 0.25 0  0.84375 0.25 0  0.875 0.25 0  0.90625 0.25 0  0.9375 0.25 0  0.96875 0.25 0  1 0.25 0  0 0.28125 0  0.03125 0.28125 0  0.0625 0.28125 0  0.09375 0.28125 0  0.125 0.28125 0  0.15625 0.28125 0  0.1875 0.28125 0  0.21875 0.28125 0  0.25 0.28125 0  0.28125 0.28125 0  0.3125 0.28125 0  0.34375 0.28125 0  0.375 0.28125 0  0.40625 0.28125 0  0.4375 0.28125 0  0.46875 0.28125 0  0.5 0.28125 0  0.53125 0.28125 0  0.5625 0.28125 0  0.59375 0.28125 0  0.625 0.28125 0  0.65625 0.28125 0  0.6875 0.28125 0  0.71875 0.28125 0  0.75 0.28125 0  0.78125 0.28125 0  0.8125 0.28125 0  0.84375 0.28125 0  0.875 0.28125 0  0.90625 0.28125 0  0.9375 0.28125 0  0.96875 0.28125 0  1 0.28125 0  0 0.3125 0  0.03125 0.3125 0  0.0625 0.3125 0  0.09375 0.3125 0  0.125 0.3125 0  0.15625 0.3125 0  0.1875 0.3125 0  0.21875 0.3125 0  0.25 0.3125 0  0.28125 0.3125 0  0.3125 0.3125 0  0.34375 0.3125 0  0.375 0.3125 0  0.40625 0.3125 0  0.4375 0.3125 0  0.46875 0.3125 0  0.5 0.3125 0  0.53125 0.3125 0  0.5625 0.3125 0  0.59375 0.3125 0  0.625 0.3125 0  0.65625 0.3125 0  0.6875 0.3125 0  0.71875 0.3125 0  0.75 0.3125 0  0.78125 0.3125 0  0.8125 0.3125 0  0.84375 0.3125 0  0.875 0.3125 0  0.90625 0.3125 0  0.9375 0.3125 0  0.96875 0.3125 0  1 0.3125 0  0 0.34375 0  0.03125 0.34375 0  0.0625 0.34375 0  0.09375 0.34375 0  0.125 0.34375 0  0.15625 0.34375 0  0.1875 0.34375 0  0.21875 0.34375 0  0.25 0.34375 0  0.28125 0.34375 0  0.3125 0.34375 0  0.34375 0.34375 0  0.375 0.34375 0  0.40625 0.34375 0  0.4375 0.34375 0  0.46875 0.34375 0  0.5 0.34375 0  0.53125 0.34375 0  0.5625 0.34375 0  0.59375 0.34375 0  0.625 0.34375 0  0.65625 0.34375 0  0.6875 0.34375 0  0.71875 0.34375 0  0.75 0.34375 0  0.78125 0.34375 0  0.8125 0.34375 0  0.84375 0.34375 0  0.875 0.34375 0  0.90625 0.34375 0  0.9375 0.34375 0  0.96875 0.34375 0  1 0.34375 0  0 0.375 0  0.03125 0.375 0  0.0625 0.375 0  0.09375 0.375 0  0.125 0.375 0  0.15625 0.375 0  0.1875 0.375 0  0.21875 0.375 0  0.25 0.375 0  0.28125 0.375 0  0.3125 0.375 0  0.34375 0.375 0  0.375 0.375 0  0.40625 0.375 0  0.4375 0.375 0  0.46875 0.375 0  0.5 0.375 0  0.53125 0.375 0  0.5625 0.375 0  0.59375 0.375 0  0.625 0.375 0  0.65625 0.375 0  0.6875 0.375 0  0.71875 0.375 0  0.75 0.375 0  0.78125 0.375 0  0.8125 0.375 0  0.84375 0.375 0  0.875 0.375 0  0.90625 0.375 0  0.9375 0.375 0  0.96875 0.375 0  1 0.375 0  0 0.40625 0  0.03125 0.40625 0  0.0625 0.40625 0  0.09375 0.40625 0  0.125 0.40625 0  0.15625 0.40625 0  0.1875 0.40625 0  0.21875 0.40625 0  0.25 0.40625 0  0.28125 0.40625 0  0.3125 0.40625 0  0.34375 0.40625 0  0.375 0.40625 0  0.40625 0.40625 0  0.4375 0.40625 0  0.46875 0.40625 0  0.5 0.40625 0  0.53125 0.40625 0  0.5625 0.40625 0  0.59375 0.40625 0  0.625 0.40625 0  0.65625 0.40625 0  0.6875 0.40625 0  0.71875 0.40625 0  0.75 0.40625 0  0.78125 0.40625 0  0.8125 0.40625 0  0.84375 0.40625 0  0.875 0.40625 0  0.90625 0.40625 0  0.9375 0.40625 0  0.96875 0.40625 0  1 0.40625 0  0 0.4375 0  0.03125 0.4375 0  0.0625 0.4375 0  0.09375 0.4375 0  0.125 0.4375 0  0.15625 0.4375 0  0.1875 0.4375 0  0.21875 0.4375 0  0.25 0.4375 0  0.28125 0.4375 0  0.3125 0.4375 0  0.34375 0.4375 0  0.375 0.4375 0  0.40625 0.4375 0  0.4375 0.4375 0  0.46875 0.4375 0  0.5 0.4375 0  0.53125 0.4375 0  0.5625 0.4375 0  0.59375 0.4375 0  0.625 0.4375 0  0.65625 0.4375 0  0.6875 0.4375 0  0.71875 0.4375 0  0.75 0.4375 0  0.78125 0.4375 0  0.8125 0.4375 0  0.84375 0.4375 0  0.875 0.4375 0  0.90625 0.4375 0  0.9375 0.4375 0  0.96875 0.4375 0  1 0.4375 0  0 0.46875 0  0.03125 0.46875 0  0.0625 0.46875 0  0.09375 0.46875 0  0.125 0.46875 0  0.15625 0.46875 0  0.1875 0.46875 0  0.21875 0.46875 0  0.25 0.46875 0  0.28125 0.46875 0  0.3125 0.46875 0  0.34375 0.46875 0  0.375 0.46875 0  0.40625 0.46875 0  0.4375 0.46875 0  0.46875 0.46875 0  0.5 0.46875 0  0.53125 0.46875 0  0.5625 0.46875 0  0.59375 0.46875 0  0.625 0.46875 0  0.65625 0.46875 0  0.6875 0.46875 0  0.71875 0.46875 0  0.75 0.46875 0  0.78125 0.46875 0  0.8125 0.46875 0  0.84375 0.46875 0  0.875 0.46875 0  0.90625 0.46875 0  0.9375 0.46875 0  0.96875 0.46875 0  1 0.46875 0  0 0.5 0  0.03125 0.5 0  0.0625 0.5 0  0.09375 0.5 0  0.125 0.5 0  0.15625 0.5 0  0.1875 0.5 0  0.21875 0.5 0  0.25 0.5 0  0.28125 0.5 0  0.3125 0.5 0  0.34375 0.5 0  0.375 0.5 0  0.40625 0.5 0  0.4375 0.5 0  0.46875 0.5 0  0.5 0.5 0  0.53125 0.5 0  0.5625 0.5 0  0.59375 0.5 0  0.625 0.5 0  0.65625 0.5 0  0.6875 0.5 0  0.71875 0.5 0  0.75 0.5 0  0.78125 0.5 0  0.8125 0.5 0  0.84375 0.5 0  0.875 0.5 0  0.90625 0.5 0  0.9375 0.5 0  0.96875 0.5 0  1 0.5 0  0 0.53125 0  0.03125 0.53125 0  0.0625 0.53125 0  0.09375 0.53125 0  0.125 0.53125 0  0.15625 0.53125 0  0.1875 0.53125 0  0.21875 0.53125 0  0.25 0.53125 0  0.28125 0.53125 0  0.3125 0.53125 0  0.34375 0.53125 0  0.375 0.53125 0  0.40625 0.53125 0  0.4375 0.53125 0  0.46875 0.53125 0  0.5 0.53125 0  0.53125 0.53125 0  0.5625 0.53125 0  0.59375 0.53125 0  0.625 0.53125 0  0.65625 0.53125 0  0.6875 0.53125 0  0.71875 0.53125 0  0.75 0.53125 0  0.78125 0.531
[...]
<PointData  Scalars="v_sol"> 
<DataArray  type="Float64"  Name="v_sol"  format="ascii">1.0868165251026199e-05  3.9162026194884415e-04  6.1242877089997898e-04  3.9664955395680442e-04  2.0426334359056791e-04  3.5335745037275458e-05  -4.6001036201181046e-05  3.5349563588954306e-04  7.1717980769519341e-05  -1.6571933672425475e-03  -4.2175986241100565e-03  -6.3682604261143605e-03  -7.1162560447927698e-03  -6.3782461711234112e-03  -4.4744869744088589e-03  -2.3264686356295802e-03  -3.9957999553440362e-04  2.2485517219412621e-03  4.1011307605617322e-03  5.4680155822975475e-03  6.3711750951018324e-03  6.6304735783736272e-03  6.0755113756082594e-03  4.5288068401058076e-03  2.7211258535352941e-03  9.1998946710660336e-04  -9.6033433636060167e-04  -2.5433794265317623e-03  -2.1999016584145770e-03  -1.3911018097735209e-03  -7.5182810808701564e-04  -3.1137585483051146e-04  1.2573639606798570e-05  2.0942911701039914e-04  -2.1019694133338242e-03  -3.3067611489219521e-03  -2.1139886222741877e-03  -7.6049686019609365e-04  -3.1695130085609242e-04  -4.3681489520695207e-04  -6.5733330183008704e-04  7.2384633834212037e-04  6.5997651994051535e-03  1.6972013028666383e-02  2.6785898749758699e-02  3.2519630130247744e-02  3.3115419772780506e-02  2.8828669642308159e-02  2.0357277733031691e-02  8.4496753351759428e-03  -5.2561002801543655e-03  -1.8720345766122276e-02  -3.1440529561998373e-02  -4.0752673093724621e-02  -4.3424793864636733e-02  -3.7456919753281234e-02  -2.4551124052748678e-02  -1.0729138982645780e-02  1.3659823472413329e-03  1.0402517688624317e-02  1.3496204221837267e-02  1.0819470024778444e-02  6.6776563439831715e-03  3.4984989918990296e-03  1.4256697840881426e-03  -2.3393798827679935e-04  1.9881854638150432e-05  -8.2708122845485225e-03  -1.0325988138719737e-02  -5.8151488798511373e-03  -4.4916880878861085e-04  1.9011156555730827e-03  4.6396314945639098e-03  1.5696796968345476e-02  3.8925919231971168e-02  6.7192451044671211e-02  8.9011208322459942e-02  9.7941489155697156e-02  9.3483467782622065e-02  7.8936754012513932e-02  5.8343346718808593e-02  3.4681131508308732e-02  9.6089857198807735e-03  -1.6673071642148696e-02  -4.4641025039747470e-02  -7.2712565057262452e-02  -9.7910030362675690e-02  -1.1436004649672815e-01  -1.1471926651447811e-01  -9.4970130295281965e-02  -6.0455317687157520e-02  -2.6250821794934358e-02  -1.6126902237503483e-03  1.5237077843445159e-02  2.3100384623402519e-02  1.9861403173823237e-02  1.3230654735244323e-02  7.2043907762307045e-03  3.1986705651220046e-04  -8.4349486614343212e-04  -1.7542509701458483e-02  -1.6919819555614179e-02  -4.5950041027974526e-03  5.5843290097191325e-03  1.5008426187418374e-02  3.9243488993719836e-02  8.1615530240789394e-02  1.2558081079188396e-01  1.5388636585889737e-01  1.6034638429961467e-01  1.4842813663621762e-01  1.2552550706143459e-01  9.7968159810287142e-02  6.9198342457509263e-02  4.0125859419992221e-02  1.0301228211171149e-02  -2.0791148688397949e-02  -5.3441157719360789e-02  -8.8633210830230236e-02  -1.2561594116318348e-01  -1.6043972945651724e-01  -1.8413855136874735e-01  -1.8410736125306992e-01  -1.5217588021192430e-01  -9.5628239970023191e-02  -3.9723884890440375e-02  -4.2737192541641277e-03  1.5384032653577639e-02  2.4217088819808115e-02  2.1111833849137181e-02  1.4368787045184930e-02  1.1071884954578272e-03  -2.9911607330724856e-03  -2.9188150903237845e-02  -1.7710530480169663e-02  5.2413781755549036e-03  2.4771946083853559e-02  6.1307675803724024e-02  1.2032436426715534e-01  1.7764284503620653e-01  2.1004413335486541e-01  2.1247364674735497e-01  1.9349596325533480e-01  1.6430718942320718e-01  1.3225638372566861e-01  1.0030324814269372e-01  6.9028132441889309e-02  3.8391328780009712e-02  8.2582360793146594e-03  -2.1983150879105930e-02  -5.3574413007877318e-02  -8.7370325270017396e-02  -1.2456934102326656e-01  -1.6587062511734743e-01  -2.0853378076531226e-01  -2.4174559829089218e-01  -2.4615204314942174e-01  -2.0572379949015029e-01  -1.2706089653389357e-01  -4.7090384614559243e-02  -1.1054349983526909e-03  1.7405591995218565e-02  2.4085506191424775e-02  1.8912646360541709e-02  1.8476780378508693e-03  -7.6138812757681786e-03  -3.8278800516160158e-02  -7.6842790879819954e-03  2.7488626324434842e-02  7.4204914341163761e-02  1.4662358806759512e-01  2.1746068924577974e-01  2.5555646470685683e-01  2.5538721429385075e-01  2.3070366408605175e-01  1.9672235803452018e-01  1.6166867686439956e-01  1.2806396829429736e-01  9.6167584706296563e-02  6.5716357328247418e-02  3.6116471108249171e-02  6.4665949700417101e-03  -2.3880205065748155e-02  -5.4789485123608886e-02  -8.6233789163365354e-02  -1.1858593157057991e-01  -1.5340853860503006e-01  -1.9401255359928923e-01  -2.4172881825032808e-01  -2.8586832342748258e-01  -2.9823499276191862e-01  -2.5064315946912336e-01  -1.4830077167357766e-01  -4.4355367987352158e-02  7.6057594328076458e-03  2.1208698864430373e-02  2.1821603768033000e-02  1.6574449860158741e-03  -1.4376841313923066e-02  -3.7280353047662494e-02  1.4408617014419528e-02  7.3200951837148864e-02  1.5549253907260638e-01  2.4130130153303450e-01  2.9057248781633072e-01  2.9225271833010558e-01  2.6436357990181730e-01  2.2736760984508514e-01  1.9115552593427024e-01  1.5798186221053881e-01  1.2730491669193861e-01  9.7800238663326891e-02  6.8143022199691802e-02  3.7602713419959244e-02  6.2837687484389127e-03  -2.5459262522762160e-02  -5.7716855577016529e-02  -9.0364889023633210e-02  -1.2268376459571145e-01  -1.5368331744829489e-01  -1.8410015740387006e-01  -2.1988470672299268e-01  -2.6898367259029038e-01  -3.2275534000676076e-01  -3.4118095929745357e-01  -2.8050419992201209e-01  -1.4909110574474238e-01  -2.6481473647070694e-02  1.8727816213943368e-02  2.1978347969726454e-02  2.8409215873555454e-03  -1.8593052508806485e-02  -2.2873974669200704e-02  5.3516266060778458e-02  1.4431540392135886e-01  2.4513044035923898e-01  3.1344221550386692e-01  3.2499249122433982e-01  2.9751548550454776e-01  2.5879913130054921e-01  2.2237008195779126e-01  1.9040364635358897e-01  1.6111745644269776e-01  1.3189176331969640e-01  1.0135157752595601e-01  6.9820823609650681e-02  3.8117251073301842e-02  6.4325055452798229e-03  -2.5559532805872066e-02  -5.8060841769609545e-02  -9.1321605365893899e-02  -1.2548266906806718e-01  -1.5970371868062472e-01  -1.9119788663072351e-01  -2.1805635518162930e-01  -2.4806988132950017e-01  -2.9760724034909730e-01  -3.5936484780575412e-01  -3.7548327232511297e-01  -2.8677461397588794e-01  -1.1986725329583585e-01  4.2919748505358896e-03  2.3172696361957953e-02  4.0780171588793990e-03  -1.7480956069476552e-02  7.4459208834502383e-03  1.1160898644073344e-01  2.2546975030812044e-01  3.1855447662146741e-01  3.5201328403384996e-01  3.3138649675169324e-01  2.9179904804407975e-01  2.5485042915963202e-01  2.2369843436836775e-01  1.9520309505804914e-01  1.6558997990577232e-01  1.3383402879573431e-01  1.0150945668250833e-01  6.9701487997041456e-02  3.8165671488052152e-02  6.4887759722128706e-03  -2.5445127374304474e-02  -5.7691941273149507e-02  -9.0240272823242582e-02  -1.2339411946708521e-01  -1.5807130647372164e-01  -1.9438820109164184e-01  -2.2796742721266350e-01  -2.5279365992324732e-01  -2.7867452543798843e-01  -3.3192226733428293e-01  -3.9945951690663684e-01  -3.9530926498287056e-01  -2.5559537123639042e-01  -5.7373884669583090e-02  2.8989667416130870e-02  1.5167486017433967e-03  -1.0594811956104672e-02  5.4573212029610615e-02  1.8027539052720151e-01  2.9901528043972692e-01  3.6587539532079721e-01  3.6496031459701905e-01  3.2716831559657228e-01  2.8819726097400022e-01  2.5693884971579767e-01  2.2884753538942298e-01  1.9900072449570108e-01  1.6644551819591971e-01  1.3379110252322282e-01  1.0222952689432893e-01  7.0839132948552569e-02  3.9116261070808303e-02  7.0979629487611384e-03  -2.5240803529153383e-02  -5.7870180005846004e-02  -9.0701838525332895e-02  -1.2337305597791252e-01  -1.5582224421059185e-01  -1.8994722995023974e-01  -2.2781346127317978e-01  -2.6332484378148102e-01  -2.8587525992841661e-01  -3.1128135115086758e-01  -3.7545015184837244e-01  -4.3983964799258551e-01  -3.8249705852272686e-01  -1.7017627594690540e-01  1.5882420839338308e-02  8.5132082006716681e-03  2.1307798589645138e-03  1.1333308709243048e-01  2.4795846820439724e-01  3.5573046450237494e-01  3.9090177167510048e-01  3.6572194948166625e-01  3.2360509010779137e-01  2.8993763776312542e-01  2.6214253055852854e-01  2.3260828142693338e-01  1.9980664462514741e-01  1.6691281034712824e-01  1.3556929201943346e-01  1.0429461365928966e-01  7.2426670453857617e-02  4.0328800409116627e-02  8.0200962234001760e-03  -2.4492643362323010e-02  -5.7258104456624360e-02  -9.0452143075593544e-02  -1.2410730854056043e-01  -1.5737109842580096e-01  -1.8921840137500756e-01  -2.2268523923799347e-01  -2.6217890092573165e-01  -2.9781710338547362e-01  -3.1630265279601033e-01  -3.4942908664283062e-01  -4.3086461915970448e-01  -4.6206968089777234e-01  -3.0278573527610697e-01  -3.6526080028124949e-02  2.6390398182928449e-02  1.8091579626653451e-02  1.7562777578385746e-01  3.0657527420943748e-01  3.9534426041831244e-01  4.0247890616670873e-01  3.6399135591392495e-01  3.2423744907371121e-01  2.9490235563865558e-01  2.6659612137000271e-01  2.3407061802783496e-01  2.0070078759406790e-01  1.6920395525978837e-01  1.3797178458823769e-01  1.0586875271753635e-01  7.3588129394889776e-02  4.1336307069438062e-02  8.9876560410863220e-03  -2.3532942316961243e-02  -5.6297881609151709e-02  -8.9264651406389728e-02  -1.2272936478082609e-01  -1.5725674950215637e-01  -1.9146423112790345e-01  -2.2295665083451149e-01  -2.5688361433345064e-01  -2.9877247332424650e-01  -3.3037276565105550e-01  -3.4573151427157783e-01  -4.0302305670501515e-01  -4.8866825915034279e-01  -4.1926129130980527e-01  -1.2525323644452704e-01  4.1882807343984065e-02  3.3398069551200428e-02  2.3387956111545863e-01  3.5311333610695544e-01  4.2188729949310522e-01  4.0807913760030945e-01  3.6398855644414629e-01  3.2821675751890544e-01  3.0020227142732603e-01  2.6932885493530229e-01  2.3533734561188430e-01  2.0301939257255744e-01  1.7181961021572409e-01  1.3962962619805022e-01  1.0712957613110001e-01  7.4928920772775479e-02  4.2690298538534711e-02  1.0259658177774036e-02  -2.2380947847668465e-02  -5.5284391453680581e-02  -8.8446762471946841e-02  -1.2160481704213581e-01  -1.5518253949159538e-01  -1.9059817377919416e-01  -2.2551179654853479e-01  -2.5666475442518721e-01  -2.9362340306814660e-01  -3.3696855456221836e-01  -3.5820591526569107e-01  -3.8516487468684779e-01  -4.7960949278123322e-01  -5.0038684389283683e-01  -2.3524649944944961e-01  4.9341058231883499e-02  4.4767327522484891e-02  2.8277297015586428e-01  3.8797611651295788e-01  4.3968559235591986e-01  4.1193924007975996e-01  3.6631794268945678e-01  3.3351348614958332e-01  3.0452221395808449e-01  2.7136508444024937e-01  2.3744045023310179e-01  2.0573400111072093e-01  1.7380906866134682e-01  1.4106164914756600e-01  1.0874316962368165e-01  7.6619343329771966e-02  4.4257274682062010e-02  1.1744314994863145e-02  -2.0934276452353150e-02  -5.3838246689914909e-02  -8.7109239106143696e-02  -1.2082811594625219e-01  -1.5429379488898007e-01  -1.8820245407750724e-01  -2.2483478605842633e-01  -2.5949634506979991e-01  -2.9122808247525345e-01  -3.3473327850389861e-01  -3.7171719092772360e-01  -3.8524704343455007e-01  -4.5837240048842393e-01  -5.4475998162182349e-01  -3.4662266459606506e-01  4.4664636872976060e-02  5.0202801810454417e-02  3.1948321862054913e-01  4.1274905592871336e-01  4.5181659722278572e-01  4.1567689424842880e-01  3.7008975203605615e-01  3.3862623168933720e-01  3.0792744256530513e-01  2.7347988790388422e-01  2.3995752188208450e-01  2.0808649749104449e-01  1.7547707932378770e-01  1.4271762533383098e-01  1.1054930143994228e-01  7.8274457788629653e-02  4.5816003945334333e-02  1.3348984850521998e-02  -1.9275574171711721e-02  -5.2148173747866219e-02  -8.5252362989345520e-02  -1.1889480690447209e-01  -1.5327997125166573e-01  -1.8709240175659408e-01  -2.2207988554563618e-01  -2.6010249584326062e-01  -2.9304832647049928e-01  -3.3005222324352435e-01  -3.7803755382800114e-01  -3.9676139448659353e-01  -4.4098687995676905e-01  -5.6081026864410399e-01  -4.4553975913258853e-01  2.8368249567156795e-02  4.9532943885879761e-02  3.4251950923415064e-01  4.2916013431132738e-01  4.5984205216388202e-01  4.1961388097075153e-01  3.7417165608739866e-01  3.4293428089439959e-01  3.1074506382217604e-01  2.7570705973996890e-01  2.4233026563943982e-01  2.1004970747156895e-01  1.7710393866292420e-01  1.4444802401933854e-01  1.1224316491591141e-01  7.9868198889909661e-02  4.7501961528279783e-02  1.5155168954226438e-02  -1.7380168630507332e-02  -5.0157346745775711e-02  -8.3271407682620299e-02  -1.1662966494962473e-01  -1.5076659345757099e-01  -1.8581130453588554e-01  -2.2001169103985690e-01  -2.5746937106586931e-01  -2.9524931326730919e-01  -3.2780041732433163e-01  -3.7689462011686831e-01  -4.1054811213712811e-01  -4.3287564960489994e-01  -5.5921260587194699e-01  -5.2634454785462803e-01  4.5245500474468412e-03  4.3367153278449942e-02  3.5139344304009357e-01  4.3814719912932526e-01  4.6475814550097150e-01  4.2330979497360999e-01  3.7794087454268316e-01  3.4618608629226982e-01  3.1315663486159401e-01  2.7777966641742446e-01  2.4433764136926217e-01  2.1170540213880212e-01  1.7864649292910426e-01  1.4603841022990227e-01  1.1379436111509796e-01  8.1490076114952820e-02  4.9300828959649094e-02  1.7112351355074638e-02  -1.5242201060185376e-02  -4.7813066320970328e-02  -8.0735738357192818e-02  -1.1416341065535178e-01  -1.4788397974358442e-01  -1.8284446654011063e-01  -2.1825913700372437e-01  -2.5378664634273740e-01  -2.9440167054763061e-01  -3.2834867797740008e-01  -3.7160233977425650e-01  -4.2042233274137958e-01  -4.3301318830959251e-01  -5.4794550722888835e-01  -5.8900572198901102e-01  -2.2625802056413319e-02  3.1398222652753931e-02  3.4652256046215640e-01  4.4048970963302136e-01  4.6644671322786713e-01  4.2680077947116918e-01  3.8083854492498664e-01  3.4845827980193561e-01  3.1507105601754343e-01  2.7954501745662208e-01  2.4587068813721344e-01  2.1306415963524858e-01  1.7997933403135397e-01  1.4739785535517358e-01  1.1521593057983009e-01  8.3090542578256613e-02  5.1118174971855480e-02  1.9178284335133126e-02  -1.2883936481745760e-02  -4.5154273634468577e-02  -7.7748710601545701e-02  -1.1085820280158327e-01  -1.4463453359084011e-01  -1.7897528301432356e-01  -2.1498409184962408e-01  -2.5043102105227666e-01  -2.9015523902738782e-01  -3.2900769895789400e-01  -3.6553975366767988e-01  -4.2371133490591661e-01  -4.3797889355454844e-01  -5.3166583530702949e-01  -6.3599250093667048e-01  -5.0130865143751528e-02  1.5613281279136294e-02  3.2722479711664182e-01  4.3705361062849962e-01  4.6398161224630297e-01  4.3033213709154861e-01  3.8277720142557897e-01  3.4972031344942700e-01  3.1644790481000257e-01  2.8089527781644419e-01  2.4690233046562512e-01  2.1401172935742924e-01  1.8103096038000943e-01  1.4846934125521383e-01  1.1643690034001992e-01  8.4587307413869273e-02  5.2907489187136413e-02  2.1330301757424012e-02  -1.0324907401431776e-02  -4.2147184827179301e-02  -7.4308074336891253e-02  -1.0698888320709501e-01  -1.4034021816893885e-01  -1.7454193879855628e-01  -2.1002981381012165e-01  -2.4624736849762552e-01  -2.8437721133839783e-01  -3.2666897269209133e-01  -3.6041060033459560e-01  -4.2024734471018887e-01  -4.4414867539249642e-01  -5.1270839766316367e-01  -6.6991944359480593e-01  -7.7013641230310598e-02  2.3393374664722153e-04  2.9277813605192060e-01  4.2665338446820017e-01  4.5780440348855683e-01  4.3267913113882922e-01  3.8479704495259232e-01  3.4960420461926106e-01  3.1733819628437870e-01  2.8174539508173280e-01  2.4743747583439207e-01  2.1445471056014362e-01  1.8166773380810797e-01  1.4921628758616534e-01  1.1736666428136755e-01  8.5893315791681649e-02  5.4635181893193482e-02  2.3536741184939963e-02  -7.5730272720637782e-03  -3.8788550511796097e-02  -7.0313342638371218e-02  -1.0250759562286939e-01  -1.3519097205608754e-01  -1.6892187624646526e-01  -2.0407817069347539e-01  -2.3989261915220247e-01  -2.7803359335922245e-01  -3.2039557167192712e-01  -3.5527125695069073e-01  -4.1187984960439261e-01  -4.4791514790151044e-01  -4.9254174057902206e-01  -6.9236521906424486e-01  -1.0411288116139901e-01  -1.1974256866012519e-02  2.4472676153164619e-01  4.0630047375922190e-01  4.4859402847205659e-01  4.3240952282262413e-01  3.8765722956232912e-01  3.4864177435560556e-01  3.1713662495473510e-01  2.8232213146431628e-01  2.4738616200764538e-01  2.1433701099047164e-01  1.8178210941918713e-01  1.4955172286046214e-01  1.1794206428601872e-01  8.6896982451340921e-02  5.6213786899545905e-02  2.5747768450160202e-02  -4.6406919244726969e-03  -3.5085018793284677e-02  -6.5887935595956515e-02  -9.7269041894426214e-02  -1.2909234721589954e-01  -1.6213039863241488e-01  -1.9677917606727488e-01  -2.3165011129759377e-01  -2.7001752910496141e-01  -3.1154750387181429e-01  -3.4734535204498851e-01  -4.0142981168129349e-01  -4.4589590839993598e-01  -4.7257884633208580e-01  -7.0392640641689397e-01  -1.3276589317115925e-01  -1.9786869854295841e-02  1.8717829987305790e-01  3.7254343892569530e-01  4.3539842716420490e-01  4.2921323746230311e-01  3.9060436277550081e-01  3.4836807757464333e-01  3.1539632149628194e-01  2.8234349124283792e-01  2.4704751462100882e-01  2.1343072980233599e-01  1.8118219195156893e-01  1.4934359499631120e-01  1.1808535081020337e-01  8.7519784899259823e-02  5.7507590926126978e-02  2.7846688086627047e-02  -1.6567365405257581e-03  -3.1176059709625430e-02  -6.0991920968405326e-02  -9.1206451356393312e-02  -1.2196139351020605e-01  -1.5426328719326010e-01  -1.8777839843029792e-01  -2.2162190564361955e-01  -2.5978821688206438e-01  -3.0051203984073960e-01  -3.3540611597538844e-01  -3.8981265150062738e-01  -4.3683618178624234e-01  -4.5306020891000465e-01  -7.0581744547311309e-01  -1.6245330792624413e-01  -2.1717224536157643e-02  1.2570364656051741e-01  3.2287728736164123e-01  4.1488921765124920e-01  4.2280261155316540e-01  3.9210357558438447e-01  3.4973202073935122e-01  3.1290951910880105e-01  2.8071038548629845e-01  2.4650033736818097e-01  2.1206272247791297e-01  1.7958478635642813e-01  1.4828954592378876e-01  1.1764427576075065e-01  8.7723272910626399e-02  5.8493924710912845e-02  2.9786425890659336e-02  1.3734386044979446e-03  -2.6988675068348563e-02  -5.5447713805908613e-02  -8.4335129204182777e-02  -1.1406801096491558e-01  -1.4509049351943343e-01  -1.7690944289626914e-01  -2.0964915665359893e-01  -2.4757466868073952e-01  -2.8641470722555096e-01  -3.1991102667908522e-01  -3.7599086517259317e-01  -4.2181436149594642e-01  -4.3215267337765689e-01  -7.0085741442284721e-01  -1.9024808523033918e-01  -1.9202235705238910e-02  6.9073501954935140e-02  2.5753821245078468e-01  3.8116553412683468e-01  4.1199255847574129e-01  3.9132654288854851e-01  3.5188431700159550e-01  3.1160331937556562e-01  2.7721559214018826e-01  2.4443052727214565e-01  2.1046011444949775e-01  1.7734342376526055e-01  1.4611197334854428e-01  1.1619263078463905e-01  8.7190356191673576e-02  5.8992046237741971e-02  3.1451062512091489e-02  4.3377697538790711e-03  -2.2538010886565058e-02  -4.9532839498156393e-02  -7.7060809792640586e-02  -1.0526370750942156e-01  -1.3417313760902858e-01  -1.6411108482970296e-01  -1.9618933356175314e-01  -2.3296616684466134e-01  -2.6861822068494412e-01  -3.0117461963792030e-01  -3.5920300799798205e-01  -4.0185890574814909e-01  -4.0728046351537439e-01  -6.9213199989518404e-01  -2.1321211373028059e-01  -1.2267626147242670e-02  2.4484355179513573e-02  1.8177304353384294e-01  3.2934149226270132e-01  3.9165395136418046e-01  3.8668520388749783e-01  3.5324866459276216e-01  3.1210125442559800e-01  2.7373016457304272e-01  2.3985136718886158e-01  2.0710906325051098e-01  1.7446438311179224e-01  1.4315381423040829e-01  1.1366214652941888e-01  8.5635201519856513e-02  5.8696569728817108e-02  3.2596640442007600e-02  7.0713545347037545e-03  -1.8239688418027596e-02  -4.3474965917172329e-02  -6.9017950581499191e-02  -9.4938580394149097e-02  -1