<?xml version="1.0"?>
<VTKFile type="UnstructuredGrid"  version="0.1"  >
<UnstructuredGrid>
<Piece  NumberOfPoints="16641" NumberOfCells="16384">
<Points>
<DataArray  type="Float64"  NumberOfComponents="3"  format="ascii">0 0 0  0.0078125 0 0  0.015625 0 0  0.0234375 0 0  0.03125 0 0  0.0390625 0 0  0.046875 0 0  0.0546875 0 0  0.0625 0 0  0.0703125 0 0  0.078125 0 0  0.0859375 0 0  0.09375 0 0  0.1015625 0 0  0.109375 0 0  0.1171875 0 0  0.125 0 0  0.1328125 0 0  0.140625 0 0  0.1484375 0 0  0.15625 0 0  0.1640625 0 0  0.171875 0 0  0.1796875 0 0  0.1875 0 0  0.1953125 0 0  0.203125 0 0  0.2109375 0 0  0.21875 0 0  0.2265625 0 0  0.234375 0 0  0.2421875 0 0  0.25 0 0  0.2578125 0 0  0.265625 0 0  0.2734375 0 0  0.28125 0 0  0.2890625 0 0  0.296875 0 0  0.3046875 0 0  0.3125 0 0  0.3203125 0 0  0.328125 0 0  0.3359375 0 0  0.34375 0 0  0.3515625 0 0  0.359375 0 0  0.3671875 0 0  0.375 0 0  0.3828125 0 0  0.390625 0 0  0.3984375 0 0  0.40625 0 0  0.4140625 0 0  0.421875 0 0  0.4296875 0 0  0.4375 0 0  0.4453125 0 0  0.453125 0 0  0.4609375 0 0  0.46875 0 0  0.4765625 0 0  0.484375 0 0  0.4921875 0 0  0.5 0 0  0.5078125 0 0  0.515625 0 0  0.5234375 0 0  0.53125 0 0  0.5390625 0 0  0.546875 0 0  0.5546875 0 0  0.5625 0 0  0.5703125 0 0  0.578125 0 0  0.5859375 0 0  0.59375 0 0  0.6015625 0 0  0.609375 0 0  0.6171875 0 0  0.625 0 0  0.6328125 0 0  0.640625 0 0  0.6484375 0 0  0.65625 0 0  0.6640625 0 0  0.671875 0 0  0.6796875 0 0  0.6875 0 0  0.6953125 0 0  0.703125 0 0  0.7109375 0 0  0.71875 0 0  0.7265625 0 0  0.734375 0 0  0.7421875 0 0  0.75 0 0  0.7578125 0 0  0.765625 0 0  0.7734375 0 0  0.78125 0 0  0.7890625 0 0  0.796875 0 0  0.8046875 0 0  0.8125 0 0  0.8203125 0 0  0.828125 0 0  0.8359375 0 0  0.84375 0 0  0.8515625 0 0  0.859375 0 0  0.8671875 0 0  0.875 0 0  0.8828125 0 0  0.890625 0 0  0.8984375 0 0  0.90625 0 0  0.9140625 0 0  0.921875 0 0  0.9296875 0 0  0.9375 0 0  0.9453125 0 0  0.953125 0 0  0.9609375 0 0  0.96875 0 0  0.9765625 0 0  0.984375 0 0  0.9921875 0 0  1 0 0  0 0.0078125 0  0.0078125 0.0078125 0  0.015625 0.0078125 0  0.0234375 0.0078125 0  0.03125 0.0078125 0  0.0390625 0.0078125 0  0.046875 0.0078125 0  0.0546875 0.0078125 0  0.0625 0.0078125 0  0.0703125 0.0078125 0  0.078125 0.0078125 0  0.0859375 0.0078125 0  0.09375 0.0078125 0  0.1015625 0.0078125 0  0.109375 0.0078125 0  0.1171875 0.0078125 0  0.125 0.0078125 0  0.1328125 0.0078125 0  0.140625 0.0078125 0  0.1484375 0.0078125 0  0.15625 0.0078125 0  0.1640625 0.0078125 0  0.171875 0.0078125 0  0.1796875 0.0078125 0  0.1875 0.0078125 0  0.1953125 0.0078125 0  0.203125 0.0078125 0  0.2109375 0.0078125 0  0.21875 0.0078125 0  0.2265625 0.0078125 0  0.234375 0.0078125 0  0.2421875 0.0078125 0  0.25 0.0078125 0  0.2578125 0.0078125 0  0.265625 0.0078125 0  0.2734375 0.0078125 0  0.28125 0.0078125 0  0.2890625 0.0078125 0  0.296875 0.0078125 0  0.3046875 0.0078125 0  0.3125 0.0078125 0  0.3203125 0.0078125 0  0.328125 0.0078125 0  0.3359375 0.0078125 0  0.34375 0.0078125 0  0.3515625 0.0078125 0  0.359375 0.0078125 0  0.3671875 0.0078125 0  0.375 0.0078125 0  0.3828125 0.0078125 0  0.390625 0.0078125 0  0.3984375 0.0078125 0  0.40625 0.0078125 0  0.4140625 0.0078125 0  0.421875 0.0078125 0  0.4296875 0.0078125 0  0.4375 0.0078125 0  0.4453125 0.0078125 0  0.453125 0.0078125 0  0.4609375 0.0078125 0  0.46875 0.0078125 0  0.4765625 0.0078125 0  0.484375 0.0078125 0  0.4921875 0.0078125 0  0.5 0.0078125 0  0.5078125 0.0078125 0  0.515625 0.0078125 0  0.5234375 0.0078125 0  0.53125 0.0078125 0  0.5390625 0.0078125 0  0.546875 0.0078125 0  0.5546875 0.0078125 0  0.5625 0.0078125 0  0.5703125 0.0078125 0  0.578125 0.0078125 0  0.5859375 0.0078125 0  0.59375 0.0078125 0  0.6015625 0.0078125 0  0.609375 0.0078125 0  0.6171875 0.0078125 0  0.625 0.0078125 0  0.6328125 0.0078125 0  0.640625 0.0078125 0  0.6484375 0.0078125 0  0.65625 0.0078125 0  0.6640625 0.0078125 0  0.671875 0.0078125 0  0.6796875 0.0078125 0  0.6875 0.0078125 0  0.6953125 0.0078125 0  0.703125 0.0078125 0  0.7109375 0.0078125 0  0.71875 0.0078125 0  0.7265625 0.0078125 0  0.734375 0.0078125 0  0.7421875 0.0078125 0  0.75 0.0078125 0  0.7578125 0.0078125 0  0.765625 0.0078125 0  0.7734375 0.0078125 0  0.78125 0.0078125 0  0.7890625 0.0078125 0  0.796875 0.0078125 0  0.8046875 0.0078125 0  0.8125 0.0078125 0  0.8203125 0.0078125 0  0.828125 0.0078125 0  0.8359375 0.0078125 0  0.84375 0.0078125 0  0.8515625 0.0078125 0  0.859375 0.0078125 0  0.8671875 0.0078125 0  0.875 0.0078125 0  0.8828125 0.0078125 0  0.890625 0.0078125 0  0.8984375 0.0078125 0  0.90625 0.0078125 0  0.9140625 0.0078125 0  0.921875 0.0078125 0  0.9296875 0.0078125 0  0.9375 0.0078125 0  0.9453125 0.0078125 0  0.953125 0.0078125 0  0.9609375 0.0078125 0  0.96875 0.0078125 0  0.9765625 0.0078125 0  0.984375 0.0078125 0  0.9921875 0.0078125 0  1 0.0078125 0  0 0.015625 0  0.0078125 0.015625 0  0.015625 0.015625 0  0.0234375 0.015625 0  0.03125 0.015625 0  0.0390625 0.015625 0  0.046875 0.015625 0  0.0546875 0.015625 0  0.0625 0.015625 0  0.0703125 0.015625 0  0.078125 0.015625 0  0.0859375 0.015625 0  0.09375 0.015625 0  0.1015625 0.015625 0  0.109375 0.015625 0  0.1171875 0.015625 0  0.125 0.015625 0  0.1328125 0.015625 0  0.140625 0.015625 0  0.1484375 0.015625 0  0.15625 0.015625 0  0.1640625 0.015625 0  0.171875 0.015625 0  0.1796875 0.015625 0  0.1875 0.015625 0  0.1953125 0.015625 0  0.203125 0.015625 0  0.2109375 0.015625 0  0.21875 0.015625 0  0.2265625 0.015625 0  0.234375 0.015625 0  0.2421875 0.015625 0  0.25 0.015625 0  0.2578125 0.015625 0  0.265625 0.015625 0  0.2734375 0.015625 0  0.28125 0.015625 0  0.2890625 0.015625 0  0.296875 0.015625 0  0.3046875 0.015625 0  0.3125 0.015625 0  0.3203125 0.015625 0  0.328125 0.015625 0  0.3359375 0.015625 0  0.34375 0.015625 0  0.3515625 0.015625 0  0.359375 0.015625 0  0.3671875 0.015625 0  0.375 0.015625 0  0.3828125 0.015625 0  0.390625 0.015625 0  0.3984375 0.015625 0  0.40625 0.015625 0  0.4140625 0.015625 0  0.421875 0.015625 0  0.4296875 0.015625 0  0.4375 0.015625 0  0.4453125 0.015625 0  0.453125 0.015625 0  0.4609375 0.015625 0  0.46875 0.015625 0  0.4765625 0.015625 0  0.484375 0.015625 0  0.4921875 0.015625 0  0.5 0.015625 0  0.5078125 0.015625 0  0.515625 0.015625 0  0.5234375 0.015625 0  0.53125 0.015625 0  0.5390625 0.015625 0  0.546875 0.015625 0  0.5546875 0.015625 0  0.5625 0.015625 0  0.5703125 0.015625 0  0.578125 0.015625 0  0.5859375 0.015625 0  0.59375 0.015625 0  0.6015625 0.015625 0  0.609375 0.015625 0  0.6171875 0.015625 0  0.625 0.015625 0  0.6328125 0.015625 0  0.640625 0.015625 0  0.6484375 0.015625 0  0.65625 0.015625 0  0.6640625 0.015625 0  0.671875 0.015625 0  0.6796875 0.015625 0  0.6875 0.015625 0  0.6953125 0.015625 0  0.703125 0.015625 0  0.7109375 0.015625 0  0.71875 0.015625 0  0.7265625 0.015625 0  0.734375 0.015625 0  0.7421875 0.015625 0  0.75 0.015625 0  0.7578125 0.015625 0  0.765625 0.015625 0  0.7734375 0.015625 0  0.78125 0.015625 0  0.7890625 0.015625 0  0.796875 0.015625 0  0.8046875 0.015625 0  0.8125 0.015625 0  0.8203125 0.015625 0  0.828125 0.015625 0  0.8359375 0.015625 0  0.84375 0.015625 0  0.8515625 0.015625 0  0.859375 0.015625 0  0.8671875 0.015625 0  0.875 0.015625 0  0.8828125 0.015625 0  0.890625 0.015625 0  0.8984375 0.015625 0  0.90625 0.015625 0  0.9140625 0.015625 0  0.921875 0.015625 0  0.9296875 0.015625 0  0.9375 0.015625 0  0.9453125 0.015625 0  0.953125 0.015625 0  0.9609375 0.015625 0  0.96875 0.015625 0  0.9765625 0.015625 0  0.984375 0.015625 0  0.9921875 0.015625 0  1 0.015625 0  0 0.0234375 0  0.0078125 0.0234375 0  0.015625 0.0234375 0  0.0234375 0.0234375 0  0.03125 0.0234375 0  0.0390625 0.0234375 0  0.046875 0.0234375 0  0.0546875 0.0234375 0  0.0625 0.0234375 0  0.0703125 0.0234375 0  0.078125 0.0234375 0  0.0859375 0.0234375 0  0.09375 0.0234375 0  0.1015625 0.0234375 0  0.109375 0.0234375 0  0.1171875 0.0234375 0  0.125 0.0234375 0  0.1328125 0.0234375 0  0.140625 0.0234375 0  0.1484375 0.0234375 0  0.15625 0.0234375 0  0.1640625 0.0234375 0  0.171875 0.0234375 0  0.1796875 0.0234375 0  0.1875 0.0234375 0  0.1953125 0.0234375 0  0.203125 0.0234375 0  0.2109375 0.0234375 0  0.21875 0.0234375 0  0.2265625 0.0234375 0  0.234375 0.0234375 0  0.2421875 0.0234375 0  0.25 0.0234375 0  0.2578125 0.0234375 0  0.265625 0.0234375 0  0.2734375 0.0234375 0  0.28125 0.0234375 0  0.2890625 0.0234375 0  0.296875 0.0234375 0  0.3046875 0.0234375 0  0.3125 0.0234375 0  0.3203125 0.0234375 0  0.328125 0.0234375 0  0.3359375 0.0234375 0  0.34375 0.0234375 0  0.3515625 0.0234375 0  0.359375 0.0234375 0  0.3671875 0.0234375 0  0.375 0.0234375 0  0.3828125 0.0234375 0  0.390625 0.0234375 0  0.3984375 0.0234375 0  0.40625 0.0234375 0  0.4140625 0.0234375 0  0.421875 0.0234375 0  0.4296875 0.0234375 0  0.4375 0.0234375 0  0.4453125 0.0234375 0  0.453125 0.0234375 0  0.4609375 0.0234375 0  0.46875 0.0234375 0  0.4765625 0.0234375 0  0.484375 0.0234375 0  0.4921875 0.0234375 0  0.5 0.0234375 0  0.5078125 0.0234375 0  0.515625 0.0234375 0  0.5234375 0.0234375 0  0.53125 0.0234375 0  0.5390625 0.0234375 0  0.546875 0.0234375 0  0.5546875 0.0234375 0  0.5625 0.0234375 0  0.5703125 0.0234375 0  0.578125 0.0234375 0  0.5859375 0.0234375 0  0.59375 0.0234375 0  0.6015625 0.0234375 0  0.609375 0.0234375 0  0.6171875 0.0234375 0  0.625 0.0234375 0  0.6328125 0.0234375 0  0.640625 0.0234375 0  0.6484375 0.0234375 0  0.65625 0.0234375 0  0.6640625 0.0234375 0  0.671875 0.0234375 0  0.6796875 0.0234375 0  0.6875 0.0234375 0  0.6953125 0.0234375 0  0.703125 0.0234375 0  0.7109375 0.0234375 0  0.71875 0.0234375 0  0.7265625 0.0234375 0  0.734375 0.0234375 0  0.7421875 0.0234375 0  0.75 0.0234375 0  0.7578125 0.0234375 0  0.765625 0.0234375 0  0.7734375 0.0234375 0  0.78125 0.0234375 0  0.7890625 0.0234375 0  0.796875 0.0234375 0  0.8046875 0.0234375 0  0.8125 0.0234375 0  0.8203125 0.0234375 0  0.828125 0.0234375 0  0.8359375 0.0234375 0  0.84375 0.0234375 0  0.8515625 0.0234375 0  0.859375 0.0234375 0  0.8671
[...]
<PointData  Scalars="u_sol"> 
<DataArray  type="Float64"  Name="u_sol"  format="ascii">1.9758735267009252e-06  -1.1989374605849029e-05  -2.2126594042061182e-05  -2.0908112435214321e-05  -1.2758441806981899e-05  1.1801245418582303e-07  1.5607824607894559e-05  3.2105430156791980e-05  4.8215939906001559e-05  6.2866787514464953e-05  7.5316651504234915e-05  8.5193710597873454e-05  9.2474131812696509e-05  9.7437105965921797e-05  1.0059155577583451e-04  1.0259604674988912e-04  1.0417965148423699e-04  1.0607303249467755e-04  1.0895200224333292e-04  1.1339444390792476e-04  1.1985014763910239e-04  1.2862412954027291e-04  1.3987495082267939e-04  1.5362964387252836e-04  1.6981471400909201e-04  1.8829935833671494e-04  2.0894320841705486e-04  2.3163822756255527e-04  2.5633523544244766e-04  2.8304963243049849e-04  3.1184663940352422e-04  3.4281093640020361e-04  3.7600898465282097e-04  4.1145336333419334e-04  4.4907462193299256e-04  4.8870186923754123e-04  5.3004869184887417e-04  5.7270055465778475e-04  6.1610640001202974e-04  6.5956528016316543e-04  7.0222845542610552e-04  7.4309125858187497e-04  7.8099799392062448e-04  8.1466217678049363e-04  8.4266057355959843e-04  8.6347370616679162e-04  8.7552797855903499e-04  8.7723649876093760e-04  8.6704249630365664e-04  8.4346954545507673e-04  8.0522528139915345e-04  7.5124371497354236e-04  6.8072620859340577e-04  5.9321320857027313e-04  4.8862799178565170e-04  3.6731998548186447e-04  2.3009427056781899e-04  7.8232831265934741e-05  -8.6496385366599803e-05  -2.6184006522341288e-04  -4.4507273624133219e-04  -6.3301841880214959e-04  -8.2208826153993360e-04  -1.0083227503114981e-03  -1.1874568255373101e-03  -1.3550135738392771e-03  -1.5062622979632745e-03  -1.6366421366616809e-03  -1.7416750897227692e-03  -1.8169320694777222e-03  -1.8584836865919825e-03  -1.8629562080037586e-03  -1.8277559647078313e-03  -1.7512397703855541e-03  -1.6329024834893209e-03  -1.4735246241124617e-03  -1.2752875168318396e-03  -1.0418270558167932e-03  -7.7821881868988651e-04  -4.9087942868081031e-04  -1.8737453134574464e-04  1.2384233737150710e-04  4.3373169292745974e-04  7.3323615620244633e-04  1.0136217584915737e-03  1.2667816043227919e-03  1.4858469155667551e-03  1.6654902748399626e-03  1.8020947880264375e-03  1.8938988588929812e-03  1.9410640931944764e-03  1.9455156542456532e-03  1.9106981277330504e-03  1.8413455171972445e-03  1.7430849110826642e-03  1.6221350269421237e-03  1.4848214407651554e-03  1.3372623878785154e-03  1.1852651475243437e-03  1.0339300414825756e-03  8.8753081848273502e-04  7.4948328921318780e-04  6.2226804720492859e-04  5.0750850718526139e-04  4.0603972453973070e-04  3.1801779461991308e-04  2.4305929688318991e-04  1.8037186884010221e-04  1.2888790508528913e-04  8.7378078058860241e-05  5.4549068305957640e-05  2.9121481496557850e-05  9.8842174051137621e-06  -4.2708908873262522e-06  -1.4335988969876421e-05  -2.1183119219098817e-05  -2.5572292384172617e-05  -2.8165166760876482e-05  -2.9537220235151139e-05  -3.0175505576315461e-05  -3.0470951014668083e-05  -3.0665967545852152e-05  -3.0817031103824594e-05  -3.0647272598562789e-05  -2.9538657260476226e-05  -2.6193800925347797e-05  -1.9210564245809338e-05  -6.8820470000141723e-06  1.5895452223254344e-06  -1.0036997111816322e-06  -3.7928567306940257e-07  9.5572776408491683e-05  3.3111301550937884e-04  6.9287664801672452e-04  1.1536921127420004e-03  1.6797864808928524e-03  2.2367910455567200e-03  2.7924988303588997e-03  3.3192121016434495e-03  3.7953490721139268e-03  4.2063764384004249e-03  4.5450059161136879e-03  4.8107136449929509e-03  5.0087103559847725e-03  5.1485305117557074e-03  5.2424191749325388e-03  5.3036779056133306e-03  5.3451053525756242e-03  5.3776411925949364e-03  5.4093008588704953e-03  5.4444695689132806e-03  5.4836001549511005e-03  5.5233222064977076e-03  5.5569188700881518e-03  5.5750693112565702e-03  5.5667069172916327e-03  5.5198251755748697e-03  5.4220854978591264e-03  5.2611422580469865e-03  5.0246827738561059e-03  4.7002576129025206e-03  4.2750218532929384e-03  3.7355095441620615e-03  3.0675323292821063e-03  2.2562426019173383e-03  1.2863589554991193e-03  1.4252387959254054e-04  -1.1902501225731033e-03  -2.7260664420338970e-03  -4.4776090263120892e-03  -6.4555603473170249e-03  -8.6680150840997682e-03  -1.1119910550922717e-02  -1.3812447316390475e-02  -1.6742617206195728e-02  -1.9902811421159787e-02  -2.3280524935303741e-02  -2.6858190289544840e-02  -3.0613153118175508e-02  -3.4517827531028084e-02  -3.8539935307506969e-02  -4.2642872415493215e-02  -4.6786204740919962e-02  -5.0926225379575404e-02  -5.5016574032964574e-02  -5.9008883894152535e-02  -6.2853441551076361e-02  -6.6499841445062477e-02  -6.9897627541720173e-02  -7.2996916125989145e-02  -7.5749005433819988e-02  -7.8106972727528021e-02  -8.0026280763890748e-02  -8.1465385429532508e-02  -8.2386368689082848e-02  -8.2755756693144264e-02  -8.2544863486750816e-02  -8.1730759494825167e-02  -8.0297302149660757e-02  -7.8235678575424891e-02  -7.5545338333359441e-02  -7.2234731386071602e-02  -6.8322031087574328e-02  -6.3835695068269749e-02  -5.8814857134925180e-02  -5.3309464793153169e-02  -4.7380119844159040e-02  -4.1097563262010112e-02  -3.4541771537870782e-02  -2.7800644439837093e-02  -2.0968277459161140e-02  -1.4142820814761571e-02  -7.4242201139481899e-03  -9.1142498585914614e-04  5.3005353637155519e-03  1.1123019759289820e-02  1.6476425437329353e-02  2.1292659328010125e-02  2.5517057973439592e-02  2.9109719647678556e-02  3.2046444471395617e-02  3.4319089105394170e-02  3.5935120724373541e-02  3.6916744530314030e-02  3.7299471667158968e-02  3.7130446580740328e-02  3.6466255766697708e-02  3.5370385689229261e-02  3.3910978722585874e-02  3.2158295995985471e-02  3.0182243835014957e-02  2.8050239863477811e-02  2.5825232237717554e-02  2.3564136803985437e-02  2.1316683172065396e-02  1.9124682256692602e-02  1.7021751275163696e-02  1.5033431995356707e-02  1.3177660758822363e-02  1.1465498286051330e-02  9.9020308871158574e-03  8.4873569691314883e-03  7.2175786376876159e-03  6.0857444309221995e-03  5.0826969748532314e-03  4.1978359389674624e-03  3.4198289349787248e-03  2.7373192019635537e-03  2.1396894169164347e-03  1.6179299906292771e-03  1.1655835531751311e-03  7.7969426114532872e-04  4.6148807723703895e-04  2.1633731047797949e-04  5.2282821626987209e-05  -2.5582235185671231e-05  -2.4177014753258923e-05  3.9673742319930628e-06  -1.2505760064184708e-05  6.2265153840499734e-05  3.1987864195625714e-04  7.8169601331987994e-04  1.4310851998924218e-03  2.2296985135158765e-03  3.1278781604796532e-03  4.0728421265395776e-03  5.0141106864369381e-03  5.9075141440671549e-03  6.7179351518512412e-03  7.4208871704082380e-03  8.0029512108346322e-03  8.4611787182410792e-03  8.8016336055937918e-03  9.0373030228969552e-03  9.1856252146236932e-03  9.2658789956273011e-03  9.2966579257345097e-03  9.2936252079781293e-03  9.2677156989035767e-03  9.2239156863039521e-03  9.1607016541517122e-03  9.0701496592343785e-03  8.9386384123347016e-03  8.7479786990391894e-03  8.4767333349862698e-03  8.1014709103138707e-03  7.5977397573949324e-03  6.9406476842821929e-03  6.1050573475688102e-03  5.0655151729494174e-03  3.7960944987429439e-03  2.2703363112086252e-03  4.6141712981924443e-04  -1.6574026191378437e-03  -4.1120740061954385e-03  -6.9268581463664278e-03  -1.0123277355461426e-02  -1.3718992076214812e-02  -1.7726625916244285e-02  -2.2152657200250718e-02  -2.6996400876711908e-02  -3.2249130882048782e-02  -3.7893465504591717e-02  -4.3902963148925903e-02  -5.0242032678087446e-02  -5.6866185541681789e-02  -6.3722600066339688e-02  -7.0750976871319121e-02  -7.7884619174763248e-02  -8.5051729652245958e-02  -9.2176811529143324e-02  -9.9182097918385115e-02  -1.0598896707472139e-01  -1.1251927100162760e-01  -1.1869654359984864e-01  -1.2444705835024399e-01  -1.2970072789918954e-01  -1.3439184753921560e-01  -1.3845969934924848e-01  -1.4184903746327249e-01  -1.4451048681048254e-01  -1.4640087284013073e-01  -1.4748353387194976e-01  -1.4772861022047368e-01  -1.4711314685217414e-01  -1.4562189060128780e-01  -1.4324750273949896e-01  -1.3999063315086036e-01  -1.3586060044599663e-01  -1.3087570851095209e-01  -1.2506370807864134e-01  -1.1846214202823277e-01  -1.1111865210252780e-01  -1.0309114863644948e-01  -9.4447830412568948e-02  -8.5266992338589670e-02  -7.5636588288742673e-02  -6.5653505336740969e-02  -5.5422526568704368e-02  -4.5054965250767381e-02  -3.4667008258586103e-02  -2.4377584419049549e-02  -1.4306305813840198e-02  -4.5711869522138508e-03  4.7142927323788036e-03  1.3443694290147386e-02  2.1519911610525452e-02  2.8857527004709352e-02  3.5385129495838094e-02  4.1046945816873341e-02  4.5803907951602253e-02  4.9634781563721482e-02  5.2536697011383388e-02  5.4525086426209728e-02  5.5632904698089083e-02  5.5909628097671762e-02  5.5419805967591738e-02  5.4240596003189867e-02  5.2459260324739680e-02  5.0170307008315269e-02  4.7472108490560258e-02  4.4463609118813932e-02  4.1241032806505359e-02  3.7894843202211995e-02  3.4507201268680898e-02  3.1149991436562923e-02  2.7883558472435593e-02  2.4756148740046700e-02  2.1804024710004127e-02  1.9052146674212917e-02  1.6515280897949992e-02  1.4199379325591920e-02  1.2103079799296798e-02  1.0219249467655454e-02  8.5364951714561235e-03  7.0406243849178360e-03  5.7161070444427279e-03  4.5475783729827897e-03  3.5213999453055562e-03  2.6272320282079557e-03  1.8594067761362398e-03  1.2177689889953025e-03  7.0721684602818218e-04  3.3530722571876233e-04  1.0544517483863319e-04  8.4726084492775605e-06  -2.1465570433341528e-06  -2.3758761963333305e-05  1.1968674225223048e-04  5.3541437007293921e-04  1.2059265249776438e-03  2.0994732807984758e-03  3.1664041818994966e-03  4.3462804851819746e-03  5.5749237350992461e-03  6.7907480668917101e-03  7.9395579540226038e-03  8.9779106157318340e-03  9.8750052278657012e-03  1.0613202268995267e-02  1.1187309777702928e-02  1.1602853083649648e-02  1.1873580438355409e-02  1.2018481545488425e-02  1.2058596889225103e-02  1.2013887124193445e-02  1.1900415035741581e-02  1.1728066372258950e-02  1.1498993739252793e-02  1.1206899757169044e-02  1.0837176491469524e-02  1.0367798205612911e-02  9.7707448024735525e-03  9.0136519938980482e-03  8.0613752693713299e-03  6.8772256229875537e-03  5.4237700573023170e-03  3.6632468093866642e-03  1.5577775000406853e-03  -9.3039066853440504e-04  -3.8384191181497457e-03  -7.2020831965878438e-03  -1.1054623573149246e-02  -1.5425280911427548e-02  -2.0337618003911911e-02  -2.5807788190650521e-02  -3.1842852913039593e-02  -3.8439289072740586e-02  -4.5581739466170938e-02  -5.3242150625620738e-02  -6.1379416184376499e-02  -6.9939526905903660e-02  -7.8856333266626319e-02  -8.8052839406777605e-02  -9.7442958371123808e-02  -1.0693363649083740e-01  -1.1642720003203245e-01  -1.2582378840581157e-01  -1.3502370099046090e-01  -1.4392955300436458e-01  -1.5244814285713329e-01  -1.6049195856309142e-01  -1.6798030585221205e-01  -1.7484005994266380e-01  -1.8100607565791560e-01  -1.8642130417842817e-01  -1.9103667844186975e-01  -1.9481083087020276e-01  -1.9770970747020913e-01  -1.9970613142407045e-01  -2.0077937532449525e-01  -2.0091476383573911e-01  -2.0010333565626889e-01  -1.9834193267892214e-01  -1.9563265561427920e-01  -1.9198288059164784e-01  -1.8740574411754404e-01  -1.8192018736376861e-01  -1.7555142280332203e-01  -1.6833134154939280e-01  -1.6029903723967950e-01  -1.5150130328940900e-01  -1.4199310979255458e-01  -1.3183797690977864e-01  -1.2110820362756054e-01  -1.0988488407588499e-01  -9.8257664411100468e-02  -8.6324192287048435e-02  -7.4189235359777547e-02  -6.1963435178143719e-02  -4.9761862517857913e-02  -3.7702039977614864e-02  -2.5901792203643175e-02  -1.4477385467580012e-02  -3.5411789115458473e-03  6.8007420286857502e-03  1.6450614725582395e-02  2.5320464657064098e-02  3.3333934156843832e-02  4.0428281429640583e-02  4.6555325082599582e-02  5.1682197581271516e-02  5.5792137541285251e-02  5.8885407710862640e-02  6.0979603572395083e-02  6.2109529101386098e-02  6.2327129159547620e-02  6.1700378102125801e-02  6.0311525144901970e-02  5.8255034544164856e-02  5.5634512078308530e-02  5.2559134658291672e-02  4.9139784158038227e-02  4.5484997562286952e-02  4.1697200526235323e-02  3.7869434838501186e-02  3.4082856589020293e-02  3.0405129001295363e-02  2.6889745393145596e-02  2.3576206105141089e-02  2.0490904929585149e-02  1.7648559082494495e-02  1.5053951406174420e-02  1.2703861614552539e-02  1.0589115426685258e-02  8.6966765537117990e-03  7.0117869747126950e-03  5.5201273090274387e-03  4.2098991317739672e-03  3.0736120748069903e-03  2.1092010567107695e-03  1.3199047933585147e-03  7.1237281067353618e-04  2.9208503070181477e-04  5.7500697552547423e-05  -1.1650320600068263e-05  -3.2992528201202163e-05  1.6625366221087012e-04  7.1810115969588354e-04  1.5703410902465119e-03  2.6704827201516220e-03  3.9545060130334441e-03  5.3510309849173288e-03  6.7866359512203222e-03  8.1919056713163890e-03  9.5062962615349647e-03  1.0681555588296017e-02  1.1683534003355032e-02  1.2492487561304421e-02  1.3102061804431350e-02  1.3517210878564900e-02  1.3751331192859871e-02  1.3822896391144443e-02  1.3751879743786456e-02  1.3556249648150812e-02  1.3248820116327727e-02  1.2834723548320636e-02  1.2309731486949797e-02  1.1659565431962896e-02  1.0860212585771191e-02  9.8791049277262288e-03  8.6768783261153542e-03  7.2093467980599794e-03  5.4293391475431028e-03  3.2881662136483901e-03  7.3667808123761098e-04  -2.2739450759651273e-03  -5.7914392557174817e-03  -9.8614940870085967e-03  -1.4526387732028362e-02  -1.9823163412898276e-02  -2.5781471063296802e-02  -3.2421267445127001e-02  -3.9750552005766333e-02  -4.7763294441289267e-02  -5.6437780375028355e-02  -6.5735551070391390e-02  -7.5601117975085827e-02  -8.5962530380974941e-02  -9.6732798292980038e-02  -1.0781215902378928e-01  -1.1909099778022343e-01  -1.3045324367213160e-01  -1.4177998111235465e-01  -1.5295300620146149e-01  -1.6385809080856356e-01  -1.7438774978820146e-01  -1.8444339145237071e-01  -1.9393678433862283e-01  -2.0279084772608830e-01  -2.1093983011663206e-01  -2.1832897169593340e-01  -2.2491377220731454e-01  -2.3065898775429014e-01  -2.3553747565584035e-01  -2.3952898987151536e-01  -2.4261901152376855e-01  -2.4479767890200288e-01  -2.4605886557100670e-01  -2.4639943343843498e-01  -2.4581868047856267e-01  -2.4431808712268935e-01  -2.4190083641851204e-01  -2.3857211804861023e-01  -2.3433952927597873e-01  -2.2921323997964688e-01  -2.2320671435133566e-01  -2.1633736791193323e-01  -2.0862742309953575e-01  -2.0010479352230334e-01  -1.9080402003492994e-01  -1.8076716894428649e-01  -1.7004465050098541e-01  -1.5869587678334601e-01  -1.4678969289025792e-01  -1.3440450602006471e-01  -1.2162805297336828e-01  -1.0855675670485468e-01  -9.5294669754750622e-02  -8.1951931197071795e-02  -6.8642988326325649e-02  -5.5484504747277445e-02  -4.2592870521538519e-02  -3.0081975336008222e-02  -1.8061076169808680e-02  -6.6328193603121307e-03  4.1089158906618545e-03  1.4080132192608365e-02  2.3207044251656081e-02  3.1427006215888516e-02  3.8689391611402661e-02  4.4956257534771386e-02  5.0202503996849966e-02  5.4416416056263128e-02  5.7600631229477804e-02  5.9772893177223833e-02  6.0967086460621100e-02  6.1233800238116219e-02  6.0639778434492218e-02  5.9267114662773804e-02  5.7211365353372762e-02  5.4578472873090159e-02  5.1481029616618081e-02  4.8033863289522888e-02  4.4349489952189937e-02  4.0533809809491492e-02  3.6682455812395758e-02  3.2878076033285644e-02  2.9188702496373623e-02  2.5667208571849783e-02  2.2351711597348806e-02  1.9266786944116734e-02  1.6425254132965493e-02  1.3830322992754465e-02  1.1478012854277108e-02  9.3597183255101964e-03  7.4648364517250305e-03  5.7833325399162319e-03  4.3080382324246066e-03  3.0363884953051304e-03  1.9712637796804031e-03  1.1206250557665013e-03  4.9609085226962849e-04  1.1048273551339783e-04  -2.2034135099732778e-05  -4.0283406917972686e-05  2.0261845273429567e-04  8.6696312088457904e-04  1.8733494497944893e-03  3.1473108124370694e-03  4.6078715557254842e-03  6.1709184536995259e-03  7.7534927936580358e-03  9.2793375712420332e-03  1.0683425795730133e-02  1.1915014650286394e-02  1.2938972154333447e-02  1.3735506797169653e-02  1.4298553388283914e-02  1.4633133308518254e-02  1.4752004421354860e-02  1.4671898148234557e-02  1.4409627839298193e-02  1.3978353944412387e-02  1.3384301586501056e-02  1.2624224580693578e-02  1.1683867798850953e-02  1.0537576665617230e-02  9.1490396046500326e-03  7.4729599141474595e-03  5.4572894259814486e-03  3.0455922576683226e-03  1.7919248854596437e-04  -3.2010501113122485e-03  -7.1532825878280635e-03  -1.1733278164131241e-02  -1.6992783293398723e-02  -2.2977384894777683e-02  -2.9723925651989433e-02  -3.7257623440117842e-02  -4.5589102988357326e-02  -5.4711653363572421e-02  -6.4599056060156451e-02  -7.5204281439799292e-02  -8.6459247868356431e-02  -9.8275788548536344e-02  -1.1054785938208228e-01  -1.2315489177668651e-01  -1.3596607148293838e-01  -1.4884517505642869e-01  -1.6165557629428257e-01  -1.7426499280549324e-01  -1.8654961096980174e-01  -1.9839731733896451e-01  -2.0970988292866924e-01  -2.2040407718119159e-01  -2.3041178829483056e-01  -2.3967931195286157e-01  -2.4816601348429984e-01  -2.5584258099303897e-01  -2.6268907466165758e-01  -2.6869294566893004e-01  -2.7384715916294794e-01  -2.7814851346097091e-01  -2.8159621153851133e-01  -2.8419070875523805e-01  -2.8593283910019995e-01  -2.8682320709857528e-01  -2.8686182135287835e-01  -2.8604796912529118e-01  -2.8438013258184197e-01  -2.8185644598298126e-01  -2.7847506101394620e-01  -2.7423452397179465e-01  -2.6913458775700089e-01  -2.6317695834663513e-01  -2.5636625308618022e-01  -2.4871103351993445e-01  -2.4022494571277006e-01  -2.3092791157291606e-01  -2.2084734284018578e-01  -2.1001930998123119e-01  -1.9848959861141288e-01  -1.8631456336576549e-01  -1.7356168601877606e-01  -1.6030973959303382e-01  -1.4664847482179433e-01  -1.3267775462736919e-01  -1.1850615271206322e-01  -1.0424894659023423e-01  -9.0025652224023534e-02  -7.5957326700196143e-02  -6.2163584580934537e-02  -4.8759711609613579e-02  -3.5854065359753454e-02  -2.3546366701171974e-02  -1.1926074314357408e-02  -1.0711648123916835e-03  8.9519360311944435e-03  1.8087740635224281e-02  2.6290738728190391e-02  3.3525145182141065e-02  3.9764980602257832e-02  4.4994121810177881e-02  4.9206766246583031e-02  5.2408320293568816e-02  5.4617065193553103e-02  5.5866332302019817e-02  5.6205358582548978e-02  5.5699661191746096e-02  5.4430685375213755e-02  5.2493773366868203e-02  4.9995063824493841e-02  4.7047291511393502e-02  4.3764979107918218e-02  4.0259520066752347e-02  3.6634682178852414e-02  3.2982957489261694e-02  2.9383028767968129e-02  2.5898475441478178e-02  2.2577616193562716e-02  1.9454356722355931e-02  1.6549846980329276e-02  1.3874689787114768e-02  1.1431559362764323e-02  9.2180660047003326e-03  7.2297089143031944e-03  5.4627497882053996e-03  3.9167914704513179e-03  2.5969499418069314e-03  1.5154152973111490e-03  6.9329278368990450e-04  1.6117160779515870e-04  -3.2019356595557864e-05  -4.6250671445252960e-05  2.3231884620040653e-04  9.9093611318742622e-04  2.1280823086190907e-03  3.5477476797068559e-03  5.1504432155071783e-03  6.8375324284696715e-03  8.5155433929006985e-03  1.0101471759056176e-02  1.1526858303059467e-02  1.2740166603235096e-02  1.3707251753360400e-02  1.4410139868537480e-02  1.4844486445701533e-02  1.5016121465862536e-02  1.4937049304815866e-02  1.4621217176500239e-02  1.4080333321441754e-02  1.3320017460407348e-02  1.2336588950128168e-02  1.1114803010589393e-02  9.6267921816796317e-03  7.8323374943920828e-03  5.6803811485471997e-03  3.1114592752641505e-03  6.0589139506465034e-05  -3.5398499446261393e-03  -7.7575639863904427e-03  -1.2658146834149137e-02  -1.8302947929805032e-02  -2.4746667230895133e-02  -3.2034499750557929e-02  -4.0198777114983028e-02  -4.9255281866446371e-02  -5.9199686232485574e-02  -7.0004652387136199e-02  -8.1618020508424427e-02  -9.3962411589397915e-02  -1.0693646000686993e-01  -1.2041773764751601e-01  -1.3426722839430119e-01  -1.4