<?xml version="1.0"?>
<VTKFile type="UnstructuredGrid"  version="0.1"  >
<UnstructuredGrid>
<Piece  NumberOfPoints="16641" NumberOfCells="16384">
<Points>
<DataArray  type="Float64"  NumberOfComponents="3"  format="ascii">0 0 0  0.0078125 0 0  0.015625 0 0  0.0234375 0 0  0.03125 0 0  0.0390625 0 0  0.046875 0 0  0.0546875 0 0  0.0625 0 0  0.0703125 0 0  0.078125 0 0  0.0859375 0 0  0.09375 0 0  0.1015625 0 0  0.109375 0 0  0.1171875 0 0  0.125 0 0  0.1328125 0 0  0.140625 0 0  0.1484375 0 0  0.15625 0 0  0.1640625 0 0  0.171875 0 0  0.1796875 0 0  0.1875 0 0  0.1953125 0 0  0.203125 0 0  0.2109375 0 0  0.21875 0 0  0.2265625 0 0  0.234375 0 0  0.2421875 0 0  0.25 0 0  0.2578125 0 0  0.265625 0 0  0.2734375 0 0  0.28125 0 0  0.2890625 0 0  0.296875 0 0  0.3046875 0 0  0.3125 0 0  0.3203125 0 0  0.328125 0 0  0.3359375 0 0  0.34375 0 0  0.3515625 0 0  0.359375 0 0  0.3671875 0 0  0.375 0 0  0.3828125 0 0  0.390625 0 0  0.3984375 0 0  0.40625 0 0  0.4140625 0 0  0.421875 0 0  0.4296875 0 0  0.4375 0 0  0.4453125 0 0  0.453125 0 0  0.4609375 0 0  0.46875 0 0  0.4765625 0 0  0.484375 0 0  0.4921875 0 0  0.5 0 0  0.5078125 0 0  0.515625 0 0  0.5234375 0 0  0.53125 0 0  0.5390625 0 0  0.546875 0 0  0.5546875 0 0  0.5625 0 0  0.5703125 0 0  0.578125 0 0  0.5859375 0 0  0.59375 0 0  0.6015625 0 0  0.609375 0 0  0.6171875 0 0  0.625 0 0  0.6328125 0 0  0.640625 0 0  0.6484375 0 0  0.65625 0 0  0.6640625 0 0  0.671875 0 0  0.6796875 0 0  0.6875 0 0  0.6953125 0 0  0.703125 0 0  0.7109375 0 0  0.71875 0 0  0.7265625 0 0  0.734375 0 0  0.7421875 0 0  0.75 0 0  0.7578125 0 0  0.765625 0 0  0.7734375 0 0  0.78125 0 0  0.7890625 0 0  0.796875 0 0  0.8046875 0 0  0.8125 0 0  0.8203125 0 0  0.828125 0 0  0.8359375 0 0  0.84375 0 0  0.8515625 0 0  0.859375 0 0  0.8671875 0 0  0.875 0 0  0.8828125 0 0  0.890625 0 0  0.8984375 0 0  0.90625 0 0  0.9140625 0 0  0.921875 0 0  0.9296875 0 0  0.9375 0 0  0.9453125 0 0  0.953125 0 0  0.9609375 0 0  0.96875 0 0  0.9765625 0 0  0.984375 0 0  0.9921875 0 0  1 0 0  0 0.0078125 0  0.0078125 0.0078125 0  0.015625 0.0078125 0  0.0234375 0.0078125 0  0.03125 0.0078125 0  0.0390625 0.0078125 0  0.046875 0.0078125 0  0.0546875 0.0078125 0  0.0625 0.0078125 0  0.0703125 0.0078125 0  0.078125 0.0078125 0  0.0859375 0.0078125 0  0.09375 0.0078125 0  0.1015625 0.0078125 0  0.109375 0.0078125 0  0.1171875 0.0078125 0  0.125 0.0078125 0  0.1328125 0.0078125 0  0.140625 0.0078125 0  0.1484375 0.0078125 0  0.15625 0.0078125 0  0.1640625 0.0078125 0  0.171875 0.0078125 0  0.1796875 0.0078125 0  0.1875 0.0078125 0  0.1953125 0.0078125 0  0.203125 0.0078125 0  0.2109375 0.0078125 0  0.21875 0.0078125 0  0.2265625 0.0078125 0  0.234375 0.0078125 0  0.2421875 0.0078125 0  0.25 0.0078125 0  0.2578125 0.0078125 0  0.265625 0.0078125 0  0.2734375 0.0078125 0  0.28125 0.0078125 0  0.2890625 0.0078125 0  0.296875 0.0078125 0  0.3046875 0.0078125 0  0.3125 0.0078125 0  0.3203125 0.0078125 0  0.328125 0.0078125 0  0.3359375 0.0078125 0  0.34375 0.0078125 0  0.3515625 0.0078125 0  0.359375 0.0078125 0  0.3671875 0.0078125 0  0.375 0.0078125 0  0.3828125 0.0078125 0  0.390625 0.0078125 0  0.3984375 0.0078125 0  0.40625 0.0078125 0  0.4140625 0.0078125 0  0.421875 0.0078125 0  0.4296875 0.0078125 0  0.4375 0.0078125 0  0.4453125 0.0078125 0  0.453125 0.0078125 0  0.4609375 0.0078125 0  0.46875 0.0078125 0  0.4765625 0.0078125 0  0.484375 0.0078125 0  0.4921875 0.0078125 0  0.5 0.0078125 0  0.5078125 0.0078125 0  0.515625 0.0078125 0  0.5234375 0.0078125 0  0.53125 0.0078125 0  0.5390625 0.0078125 0  0.546875 0.0078125 0  0.5546875 0.0078125 0  0.5625 0.0078125 0  0.5703125 0.0078125 0  0.578125 0.0078125 0  0.5859375 0.0078125 0  0.59375 0.0078125 0  0.6015625 0.0078125 0  0.609375 0.0078125 0  0.6171875 0.0078125 0  0.625 0.0078125 0  0.6328125 0.0078125 0  0.640625 0.0078125 0  0.6484375 0.0078125 0  0.65625 0.0078125 0  0.6640625 0.0078125 0  0.671875 0.0078125 0  0.6796875 0.0078125 0  0.6875 0.0078125 0  0.6953125 0.0078125 0  0.703125 0.0078125 0  0.7109375 0.0078125 0  0.71875 0.0078125 0  0.7265625 0.0078125 0  0.734375 0.0078125 0  0.7421875 0.0078125 0  0.75 0.0078125 0  0.7578125 0.0078125 0  0.765625 0.0078125 0  0.7734375 0.0078125 0  0.78125 0.0078125 0  0.7890625 0.0078125 0  0.796875 0.0078125 0  0.8046875 0.0078125 0  0.8125 0.0078125 0  0.8203125 0.0078125 0  0.828125 0.0078125 0  0.8359375 0.0078125 0  0.84375 0.0078125 0  0.8515625 0.0078125 0  0.859375 0.0078125 0  0.8671875 0.0078125 0  0.875 0.0078125 0  0.8828125 0.0078125 0  0.890625 0.0078125 0  0.8984375 0.0078125 0  0.90625 0.0078125 0  0.9140625 0.0078125 0  0.921875 0.0078125 0  0.9296875 0.0078125 0  0.9375 0.0078125 0  0.9453125 0.0078125 0  0.953125 0.0078125 0  0.9609375 0.0078125 0  0.96875 0.0078125 0  0.9765625 0.0078125 0  0.984375 0.0078125 0  0.9921875 0.0078125 0  1 0.0078125 0  0 0.015625 0  0.0078125 0.015625 0  0.015625 0.015625 0  0.0234375 0.015625 0  0.03125 0.015625 0  0.0390625 0.015625 0  0.046875 0.015625 0  0.0546875 0.015625 0  0.0625 0.015625 0  0.0703125 0.015625 0  0.078125 0.015625 0  0.0859375 0.015625 0  0.09375 0.015625 0  0.1015625 0.015625 0  0.109375 0.015625 0  0.1171875 0.015625 0  0.125 0.015625 0  0.1328125 0.015625 0  0.140625 0.015625 0  0.1484375 0.015625 0  0.15625 0.015625 0  0.1640625 0.015625 0  0.171875 0.015625 0  0.1796875 0.015625 0  0.1875 0.015625 0  0.1953125 0.015625 0  0.203125 0.015625 0  0.2109375 0.015625 0  0.21875 0.015625 0  0.2265625 0.015625 0  0.234375 0.015625 0  0.2421875 0.015625 0  0.25 0.015625 0  0.2578125 0.015625 0  0.265625 0.015625 0  0.2734375 0.015625 0  0.28125 0.015625 0  0.2890625 0.015625 0  0.296875 0.015625 0  0.3046875 0.015625 0  0.3125 0.015625 0  0.3203125 0.015625 0  0.328125 0.015625 0  0.3359375 0.015625 0  0.34375 0.015625 0  0.3515625 0.015625 0  0.359375 0.015625 0  0.3671875 0.015625 0  0.375 0.015625 0  0.3828125 0.015625 0  0.390625 0.015625 0  0.3984375 0.015625 0  0.40625 0.015625 0  0.4140625 0.015625 0  0.421875 0.015625 0  0.4296875 0.015625 0  0.4375 0.015625 0  0.4453125 0.015625 0  0.453125 0.015625 0  0.4609375 0.015625 0  0.46875 0.015625 0  0.4765625 0.015625 0  0.484375 0.015625 0  0.4921875 0.015625 0  0.5 0.015625 0  0.5078125 0.015625 0  0.515625 0.015625 0  0.5234375 0.015625 0  0.53125 0.015625 0  0.5390625 0.015625 0  0.546875 0.015625 0  0.5546875 0.015625 0  0.5625 0.015625 0  0.5703125 0.015625 0  0.578125 0.015625 0  0.5859375 0.015625 0  0.59375 0.015625 0  0.6015625 0.015625 0  0.609375 0.015625 0  0.6171875 0.015625 0  0.625 0.015625 0  0.6328125 0.015625 0  0.640625 0.015625 0  0.6484375 0.015625 0  0.65625 0.015625 0  0.6640625 0.015625 0  0.671875 0.015625 0  0.6796875 0.015625 0  0.6875 0.015625 0  0.6953125 0.015625 0  0.703125 0.015625 0  0.7109375 0.015625 0  0.71875 0.015625 0  0.7265625 0.015625 0  0.734375 0.015625 0  0.7421875 0.015625 0  0.75 0.015625 0  0.7578125 0.015625 0  0.765625 0.015625 0  0.7734375 0.015625 0  0.78125 0.015625 0  0.7890625 0.015625 0  0.796875 0.015625 0  0.8046875 0.015625 0  0.8125 0.015625 0  0.8203125 0.015625 0  0.828125 0.015625 0  0.8359375 0.015625 0  0.84375 0.015625 0  0.8515625 0.015625 0  0.859375 0.015625 0  0.8671875 0.015625 0  0.875 0.015625 0  0.8828125 0.015625 0  0.890625 0.015625 0  0.8984375 0.015625 0  0.90625 0.015625 0  0.9140625 0.015625 0  0.921875 0.015625 0  0.9296875 0.015625 0  0.9375 0.015625 0  0.9453125 0.015625 0  0.953125 0.015625 0  0.9609375 0.015625 0  0.96875 0.015625 0  0.9765625 0.015625 0  0.984375 0.015625 0  0.9921875 0.015625 0  1 0.015625 0  0 0.0234375 0  0.0078125 0.0234375 0  0.015625 0.0234375 0  0.0234375 0.0234375 0  0.03125 0.0234375 0  0.0390625 0.0234375 0  0.046875 0.0234375 0  0.0546875 0.0234375 0  0.0625 0.0234375 0  0.0703125 0.0234375 0  0.078125 0.0234375 0  0.0859375 0.0234375 0  0.09375 0.0234375 0  0.1015625 0.0234375 0  0.109375 0.0234375 0  0.1171875 0.0234375 0  0.125 0.0234375 0  0.1328125 0.0234375 0  0.140625 0.0234375 0  0.1484375 0.0234375 0  0.15625 0.0234375 0  0.1640625 0.0234375 0  0.171875 0.0234375 0  0.1796875 0.0234375 0  0.1875 0.0234375 0  0.1953125 0.0234375 0  0.203125 0.0234375 0  0.2109375 0.0234375 0  0.21875 0.0234375 0  0.2265625 0.0234375 0  0.234375 0.0234375 0  0.2421875 0.0234375 0  0.25 0.0234375 0  0.2578125 0.0234375 0  0.265625 0.0234375 0  0.2734375 0.0234375 0  0.28125 0.0234375 0  0.2890625 0.0234375 0  0.296875 0.0234375 0  0.3046875 0.0234375 0  0.3125 0.0234375 0  0.3203125 0.0234375 0  0.328125 0.0234375 0  0.3359375 0.0234375 0  0.34375 0.0234375 0  0.3515625 0.0234375 0  0.359375 0.0234375 0  0.3671875 0.0234375 0  0.375 0.0234375 0  0.3828125 0.0234375 0  0.390625 0.0234375 0  0.3984375 0.0234375 0  0.40625 0.0234375 0  0.4140625 0.0234375 0  0.421875 0.0234375 0  0.4296875 0.0234375 0  0.4375 0.0234375 0  0.4453125 0.0234375 0  0.453125 0.0234375 0  0.4609375 0.0234375 0  0.46875 0.0234375 0  0.4765625 0.0234375 0  0.484375 0.0234375 0  0.4921875 0.0234375 0  0.5 0.0234375 0  0.5078125 0.0234375 0  0.515625 0.0234375 0  0.5234375 0.0234375 0  0.53125 0.0234375 0  0.5390625 0.0234375 0  0.546875 0.0234375 0  0.5546875 0.0234375 0  0.5625 0.0234375 0  0.5703125 0.0234375 0  0.578125 0.0234375 0  0.5859375 0.0234375 0  0.59375 0.0234375 0  0.6015625 0.0234375 0  0.609375 0.0234375 0  0.6171875 0.0234375 0  0.625 0.0234375 0  0.6328125 0.0234375 0  0.640625 0.0234375 0  0.6484375 0.0234375 0  0.65625 0.0234375 0  0.6640625 0.0234375 0  0.671875 0.0234375 0  0.6796875 0.0234375 0  0.6875 0.0234375 0  0.6953125 0.0234375 0  0.703125 0.0234375 0  0.7109375 0.0234375 0  0.71875 0.0234375 0  0.7265625 0.0234375 0  0.734375 0.0234375 0  0.7421875 0.0234375 0  0.75 0.0234375 0  0.7578125 0.0234375 0  0.765625 0.0234375 0  0.7734375 0.0234375 0  0.78125 0.0234375 0  0.7890625 0.0234375 0  0.796875 0.0234375 0  0.8046875 0.0234375 0  0.8125 0.0234375 0  0.8203125 0.0234375 0  0.828125 0.0234375 0  0.8359375 0.0234375 0  0.84375 0.0234375 0  0.8515625 0.0234375 0  0.859375 0.0234375 0  0.8671
[...]
<PointData  Scalars="v_sol"> 
<DataArray  type="Float64"  Name="v_sol"  format="ascii">-1.9720115133935689e-06  1.0919178793587926e-06  1.3269922214137818e-05  2.5852824285472282e-05  3.6322448414814106e-05  4.3816285567252389e-05  4.8150229883717556e-05  4.9430990239109630e-05  4.7990137069800246e-05  4.4327531688283811e-05  3.9056916670232999e-05  3.2839736105732685e-05  2.6320396903157152e-05  2.0069452732932490e-05  1.4541922410259053e-05  1.0052055998604088e-05  6.7642169008004015e-06  4.6970304367089928e-06  3.7381450348595796e-06  3.6671957697318725e-06  4.1853234155849562e-06  4.9496808837660681e-06  5.6103957997140083e-06  5.8462587264226760e-06  5.3939946570658457e-06  4.0657873792283763e-06  1.7518299493519981e-06  -1.5919394432203454e-06  -5.9674440618618741e-06  -1.1362556071021542e-05  -1.7775406458466553e-05  -2.5228432570941601e-05  -3.3771172450228270e-05  -4.3473400295239578e-05  -5.4412063097106587e-05  -6.6655868806115814e-05  -8.0250775362647946e-05  -9.5210421194329148e-05  -1.1151033257239712e-04  -1.2908343110169316e-04  -1.4782020906083297e-04  -1.6755795515716111e-04  -1.8808771916313866e-04  -2.0914595817453564e-04  -2.3041808976264475e-04  -2.5154921713630920e-04  -2.7214450737874865e-04  -2.9177935179520314e-04  -3.1000835875830319e-04  -3.2638045793651236e-04  -3.4044775914021273e-04  -3.5177564717639356e-04  -3.5995548660070419e-04  -3.6461395822021434e-04  -3.6542037997906528e-04  -3.6209299440802603e-04  -3.5440306613522131e-04  -3.4217775036424051e-04  -3.2530157994819522e-04  -3.0371750732018451e-04  -2.7742722856769148e-04  -2.4649266963729712e-04  -2.1103613688160661e-04  -1.7124622486580155e-04  -1.2737090295530999e-04  -7.9749029466832930e-05  -2.8793806851991327e-05  2.5066347629591607e-05  8.1230529381324753e-05  1.3903594073252752e-04  1.9772672372662638e-04  2.5645522851928970e-04  3.1428791091027311e-04  3.7021653392969872e-04  4.2317504897294367e-04  4.7206299574138039e-04  5.1577552320528910e-04  5.5323896442528026e-04  5.8345199620894620e-04  6.0552839405918853e-04  6.1874287606130556e-04  6.2257436279935109e-04  6.1673754972489333e-04  6.0119858669151508e-04  5.7626278494636259e-04  5.4249527711484587e-04  5.0069980496191306e-04  4.5197204544447498e-04  3.9762418886512207e-04  3.3911496454734082e-04  2.7797067062604140e-04  2.1580816021506263e-04  1.5420630794483919e-04  9.4627264320633158e-05  3.8382507985418540e-05  -1.3397899970574695e-05  -5.9777514694783078e-05  -1.0010604788634201e-04  -1.3396474698362172e-04  -1.6115707589954215e-04  -1.8175781206775264e-04  -1.9603325267351349e-04  -2.0442494184434685e-04  -2.0753212809146375e-04  -2.0604392346931314e-04  -2.0071399552336116e-04  -1.9231375642476714e-04  -1.8159644813350558e-04  -1.6926688118431432e-04  -1.5595754350092254e-04  -1.4221503635842667e-04  -1.2849282914027845e-04  -1.1515241340217850e-04  -1.0246796471757399e-04  -9.0635515683752077e-05  -7.9785820186804252e-05  -6.9989065691834117e-05  -6.1258887168739841e-05  -5.3548838059479035e-05  -4.6743923095045392e-05  -4.0647975513080158e-05  -3.4978051304654599e-05  -2.9366038569638856e-05  -2.3400294865890622e-05  -1.6709182671546708e-05  -9.1855613628962490e-06  -1.4815344405296725e-06  4.0229898468475988e-06  1.6019922212992323e-06  1.1983658211857240e-05  1.8769533690995825e-07  -6.5931745141460663e-05  -1.3050339341980397e-04  -1.8387222559153749e-04  -2.2177599097565739e-04  -2.4359173056248372e-04  -2.4988065464521961e-04  -2.4236379532779478e-04  -2.2359697122572994e-04  -1.9671673455874509e-04  -1.6509655232306361e-04  -1.3201625340078437e-04  -1.0037241588489775e-04  -7.2467575859174957e-05  -4.9885057924897518e-05  -3.3445558914591816e-05  -2.3230918681195945e-05  -1.8660423296147897e-05  -1.8607714437701612e-05  -2.1550303028599062e-05  -2.5744280221724493e-05  -2.9412299128311445e-05  -3.0925554634958850e-05  -2.8953413243384684e-05  -2.2553467063071889e-05  -1.1184253507703794e-05  5.3595157647171084e-06  2.7069660725599173e-05  5.3869173511110057e-05  8.5737486652612057e-05  1.2278468316224761e-04  1.6526490477335415e-04  2.1353751081020964e-04  2.6799699058521775e-04  3.2899497292844000e-04  3.9677170149719922e-04  4.7140768906269332e-04  5.5279269333112393e-04  6.4060460971084737e-04  7.3429562709509909e-04  8.3306978502093040e-04  9.3588068548332770e-04  1.0414245677022671e-03  1.1481531901901202e-03  1.2542967528602314e-03  1.3578951826172545e-03  1.4568379522919039e-03  1.5489229890616161e-03  1.6319009489724734e-03  1.7035262537903049e-03  1.7616377742860798e-03  1.8041924705056436e-03  1.8293161524280993e-03  1.8353400744077863e-03  1.8208304377258561e-03  1.7846082880738916e-03  1.7257628175372712e-03  1.6436589242754716e-03  1.5379417904977570e-03  1.4085408531594463e-03  1.2556751138505027e-03  1.0798633116478962e-03  8.8193735217402276e-04  6.6306253679545505e-04  4.2478096279493772e-04  1.6901816651418699e-04  -1.0191009457925062e-04  -3.8524923027952353e-04  -6.7769514618611353e-04  -9.7545479727767102e-04  -1.2742408179955409e-03  -1.5692858411920788e-03  -1.8553936920981057e-03  -2.1270243472318187e-03  -2.3784151301728725e-03  -2.6037402248171178e-03  -2.7973056136147488e-03  -2.9537731554834896e-03  -3.0684045035846608e-03  -3.1373119552319151e-03  -3.1576793372430226e-03  -3.1279823696563291e-03  -3.0481697957624567e-03  -2.9197451388786513e-03  -2.7457366287533995e-03  -2.5305932701652893e-03  -2.2801331769684461e-03  -2.0012701455332741e-03  -1.7016886285274974e-03  -1.3894734255817374e-03  -1.0729067174818391e-03  -7.6004588437274094e-04  -4.5833707794149642e-04  -1.7440454017424016e-04  8.6108309134053435e-05  3.1873777008256622e-04  5.2028244366990870e-04  6.8878187680196943e-04  8.2350637996615836e-04  9.2492215716151428e-04  9.9451483195115006e-04  1.0346319967705960e-03  1.0483343552375459e-03  1.0391509418283802e-03  1.0108921028902883e-03  9.6744301031595720e-04  9.1258326624853148e-04  8.4983814718423843e-04  7.8236605449320210e-04  7.1288773408589249e-04  6.4365513658252939e-04  5.7645667261846628e-04  5.1264666872299360e-04  4.5319354674797579e-04  3.9873526344843483e-04  3.4961468037832865e-04  3.0589481432435087e-04  2.6734222635949658e-04  2.3337826830664159e-04  2.0301943099928769e-04  1.7482758283360791e-04  1.4693670101247598e-04  1.1719615153261333e-04  8.3653912938269246e-05  4.5472614013626037e-05  5.6252273636636048e-06  -2.4185219997532242e-05  -6.9543308819994736e-06  2.2396379483848134e-05  -9.3160941798036445e-05  -3.2798003626802365e-04  -5.6475499841568053e-04  -7.6456236719812866e-04  -9.0926950072048904e-04  -9.9345268655836065e-04  -1.0180684944805837e-03  -9.8895505218374530e-04  -9.1548769413827647e-04  -8.0937817296616312e-04  -6.8337101432764432e-04  -5.4998022470552192e-04  -4.2039128095858874e-04  -3.0362475686604001e-04  -2.0600459429106767e-04  -1.3092492510016326e-04  -7.8881784533460446e-05  -4.7726172814229374e-05  -3.3098979993938735e-05  -2.9013543052357763e-05  -2.8547166159055288e-05  -2.4585516824627629e-05  -1.0536970773170074e-05  1.9085191194492226e-05  6.8310688699670116e-05  1.3965233433829708e-04  2.3433426908650205e-04  3.5272742343664865e-04  4.9485755979678848e-04  6.6084130398816701e-04  8.5114103128936262e-04  1.0665921454411349e-03  1.3082338272565064e-03  1.5770250136326583e-03  1.8735418413907718e-03  2.1977189585816194e-03  2.5486550022725315e-03  2.9244758807865008e-03  3.3222553034297844e-03  3.7379725188772684e-03  4.1665158453745247e-03  4.6017191056679507e-03  5.0364448170396965e-03  5.4627212543865529e-03  5.8719411064519899e-03  6.2550889192632755e-03  6.6030059789241669e-03  6.9066594816285182e-03  7.1574247743311763e-03  7.3473357822346546e-03  7.4692790017379810e-03  7.5171796172986008e-03  7.4861110604346574e-03  7.3723606734401497e-03  7.1734449317551411e-03  6.8880860619195050e-03  6.5161594017234311e-03  6.0586243973426981e-03  5.5174503276525025e-03  4.8955481322179722e-03  4.1967172528129849e-03  3.4256130077268479e-03  2.5877380207760606e-03  1.6894620523366199e-03  7.3804924520416595e-04  -2.5832543768373746e-04  -1.2904198450457681e-03  -2.3478418389851130e-03  -3.4191345009914474e-03  -4.4916699673501342e-03  -5.5516815572467758e-03  -6.5843376810549676e-03  -7.5738863073264986e-03  -8.5038772763799206e-03  -9.3574740532077795e-03  -1.0117853961477102e-02  -1.0768693831928400e-02  -1.1294726440294941e-02  -1.1682347276493256e-02  -1.1920238205477763e-02  -1.1999986766987929e-02  -1.1916621555076114e-02  -1.1669026745189793e-02  -1.1260321659267309e-02  -1.0697931336696958e-02  -9.9935053742045820e-03  -9.1626238039970043e-03  -8.2243622879969430e-03  -7.2006588990606310e-03  -6.1156339218346335e-03  -4.9944803778972958e-03  -3.8626859522987783e-03  -2.7452824827020545e-03  -1.6660034391418946e-03  -6.4643349154993018e-04  2.9458140111937337e-04  1.1414680185648431e-03  1.8823026530244060e-03  2.5090339487830364e-03  3.0175573479257183e-03  3.4077385728384481e-03  3.6831884366561609e-03  3.8508003639339404e-03  3.9202953859576832e-03  3.9035212295500457e-03  3.8137282667854797e-03  3.6648170550872636e-03  3.4706221921747531e-03  3.2442915207140026e-03  2.9978012943598863e-03  2.7416263268647627e-03  2.4845671064309314e-03  2.2337204502923987e-03  1.9945507626870401e-03  1.7710006028854725e-03  1.5656072143870924e-03  1.3795498989005238e-03  1.2126063093617599e-03  1.0630299848325452e-03  9.2740271556778018e-04  8.0058806359317898e-04  6.7597164093226758e-04  5.4626642058609666e-04  4.0542537115861974e-04  2.5211965870711574e-04  9.7882071116230698e-05  -2.3398508510142660e-05  -1.9478722441949487e-05  2.2737536956938856e-05  -3.1563048924210642e-04  -7.8292642772380080e-04  -1.2420534917374671e-03  -1.6290834064902951e-03  -1.9101714378686823e-03  -2.0726220001491586e-03  -2.1170384953070956e-03  -2.0541043363517934e-03  -1.9018168757634038e-03  -1.6829349233159607e-03  -1.4223662036401091e-03  -1.1446879406973112e-03  -8.7199160057189616e-04  -6.2221303217068369e-04  -4.0802412907817344e-04  -2.3629100551445344e-04  -1.0805524184764592e-04  -1.8975336210918274e-05  3.9836201959166373e-05  8.0647533773583116e-05  1.1770038232762637e-04  1.6568958873401261e-04  2.3830756474674581e-04  3.4706530627594257e-04  5.0058542607313717e-04  7.0447688534113081e-04  9.6176601829783652e-04  1.2737173803913609e-03  1.6407743748479420e-03  2.0633302054356897e-03  2.5421199487225795e-03  3.0781808759401787e-03  3.6724585746383868e-03  4.3252158537317037e-03  5.0354034767492624e-03  5.8001383089572086e-03  6.6143428928178392e-03  7.4705497149380618e-03  8.3588250639305122e-03  9.2668201715613574e-03  1.0179952589559551e-02  1.1081704118544878e-02  1.1954059918592675e-02  1.2778046046023962e-02  1.3534336918035725e-02  1.4203931358098724e-02  1.4768807560432699e-02  1.5212535379555686e-02  1.5520781746233475e-02  1.5681703645301862e-02  1.5686210703662971e-02  1.5528055910216183e-02  1.5203811362492008e-02  1.4712723339305844e-02  1.4056484786543274e-02  1.3238953091951940e-02  1.2265847256825330e-02  1.1144450998128110e-02  9.8833468126264239e-03  8.4921973492442567e-03  6.9815855925980646e-03  5.3629174517122275e-03  3.6483903038830286e-03  1.8510105246652051e-03  -1.5355118305427068e-05  -1.9357483665971107e-03  -3.8940751349135997e-03  -5.8731170519232068e-03  -7.8541781684511730e-03  -9.8171023995867607e-03  -1.1740225571994830e-02  -1.3600433649000964e-02  -1.5373311970789835e-02  -1.7033420023322469e-02  -1.8554695241006960e-02  -1.9910997530788867e-02  -2.1076787362390194e-02  -2.2027923489022713e-02  -2.2742550706087179e-02  -2.3202037871523529e-02  -2.3391900389956304e-02  -2.3302680181383224e-02  -2.2930703370141439e-02  -2.2278494912184262e-02  -2.1355205395427651e-02  -2.0176641488140662e-02  -1.8764902464767412e-02  -1.7147842306931654e-02  -1.5358289378853536e-02  -1.3432956484946346e-02  -1.1411545963235315e-02  -9.3354592076665896e-03  -7.2465443150007431e-03  -5.1858460655717633e-03  -3.1926438384601141e-03  -1.3034375811289424e-03  4.4896463219103248e-04  2.0364719631013779e-03  3.4365201001098837e-03  4.6326942043941662e-03  5.6151325619288005e-03  6.3808060119138945e-03  6.9336033943423999e-03  7.2837843104005349e-03  7.4473016844784695e-03  7.4447061581579361e-03  7.2998194141224958e-03  7.0382937706246432e-03  6.6861812612804047e-03  6.2686427759973433e-03  5.8089046320127765e-03  5.3275184694021021e-03  4.8419311311984617e-03  4.3663150970585790e-03  3.9115886309757540e-03  3.4854859244774598e-03  3.0925979194402179e-03  2.7343053055254034e-03  2.4086068850629021e-03  2.1099610486120354e-03  1.8293533604183210e-03  1.5549582782250744e-03  1.2738313276772475e-03  9.7549885591085889e-04  6.5787309525651395e-04  3.3903596262505287e-04  6.9212798307261158e-05  -2.6053752920909348e-05  1.8253096157665763e-05  -6.5107330351281086e-04  -1.4133835745200722e-03  -2.1322232476238883e-03  -2.7290080157866838e-03  -3.1577365118966999e-03  -3.3993690753108281e-03  -3.4547858141111528e-03  -3.3405241609130946e-03  -3.0846311132369680e-03  -2.7225622775450468e-03  -2.2930647516946146e-03  -1.8343174595808562e-03  -1.3806035537681025e-03  -9.5971976758804753e-04  -5.9122505365589474e-04  -2.8553974594788643e-04  -4.3850129363902323e-05  1.4125140365259375e-04  2.8446929592571484e-04  4.0594799882977245e-04  5.2899879284248235e-04  6.7763288334160283e-04  8.7421023915421774e-04  1.1375561068905900e-03  1.4818510763671665e-03  1.9164549783026660e-03  2.4465944656743644e-03  3.0746024459980506e-03  3.8012595153610468e-03  4.6268102789231271e-03  5.5513744873375266e-03  6.5746766668080122e-03  7.6952654412810167e-03  8.9095216064827634e-03  1.0210731628338725e-02  1.1588377184336397e-02  1.3027740041530267e-02  1.4509825218944098e-02  1.6011585446780125e-02  1.7506411816786773e-02  1.8964857329294090e-02  2.0355614040752406e-02  2.1646635852832743e-02  2.2806372250243581e-02  2.3805012056697768e-02  2.4615613395504665e-02  2.5215067249681714e-02  2.5584803483979381e-02  2.5711217434792679e-02  2.5585795038553346e-02  2.5204958665950867e-02  2.4569699423858983e-02  2.3685030625667715e-02  2.2559345261774492e-02  2.1203734675250552e-02  1.9631327634769186e-02  1.7856692845169383e-02  1.5895337467787287e-02  1.3763320144578121e-02  1.1476987503101990e-02  9.0528315326757498e-03  6.5074625215005089e-03  3.8576806562156014e-03  1.1206345896044344e-03  -1.6858875337538151e-03  -4.5433050081716024e-03  -7.4320097488295364e-03  -1.0330765218355917e-02  -1.3216685454288743e-02  -1.6064911799186940e-02  -1.8848497060678815e-02  -2.1538361882242854e-02  -2.4103408665072244e-02  -2.6510793553979395e-02  -2.8726392175704347e-02  -3.0715463089922672e-02  -3.2443513718088915e-02  -3.3877349347866632e-02  -3.4986271139557823e-02  -3.5743366715881582e-02  -3.6126827369251054e-02  -3.6121180283343927e-02  -3.5718351494374002e-02  -3.4918591955393763e-02  -3.3730836766237914e-02  -3.2172813450568438e-02  -3.0270861518141449e-02  -2.8059181920319701e-02  -2.5578804560576082e-02  -2.2876332861191732e-02  -2.0002591111383340e-02  -1.7011183421060949e-02  -1.3956999791625796e-02  -1.0895127976501799e-02  -7.8796192304832410e-03  -4.9623079757723067e-03  -2.1916925168955926e-03  3.8779974194172949e-04  2.7368642811774918e-03  4.8226154792307624e-03  6.6197877016861252e-03  8.1116592798013767e-03  9.2906681168742657e-03  1.0159055545268355e-02  1.0728589575049043e-02  1.1019839107290810e-02  1.1060841071852465e-02  1.0885259007276625e-02  1.0530248039083702e-02  1.0034249322977423e-02  9.4349382721998203e-03  8.7675114105526322e-03  8.0634093967181658e-03  7.3494988912163077e-03  6.6476251934346284e-03  5.9744040503315323e-03  5.3410776264076155e-03  4.7533344207038534e-03  4.2110778587502330e-03  3.7082759436404922e-03  3.2331989409238896e-03  2.7695189911063258e-03  2.2988532098680938e-03  1.8056556630037591e-03  1.2848569257442725e-03  7.5535733193925485e-04  2.7310587977058873e-04  -2.7159310570507322e-05  1.1134587536835883e-05  -1.0790371418482377e-03  -2.1940114224165180e-03  -3.2041832524778526e-03  -4.0240713342958780e-03  -4.6003610003369040e-03  -4.9107048281975835e-03  -4.9584559752714292e-03  -4.7679715146853301e-03  -4.3791775288234309e-03  -3.8418395055144247e-03  -3.2098102184017030e-03  -2.5357097609645511e-03  -1.8663991245699665e-03  -1.2394861233785664e-03  -6.8096559197602122e-04  -2.0399807863950443e-04  1.9122154256724630e-04  5.1657101335016869e-04  7.9416249900649612e-04  1.0536750034670524e-03  1.3290678167201181e-03  1.6550186775150899e-03  2.0635567115473972e-03  2.5814170401133050e-03  3.2285539571884100e-03  4.0179811155952923e-03  4.9567575359162827e-03  6.0476369176734471e-03  7.2907236775243099e-03  8.6845229309524159e-03  1.0226089010950743e-02  1.1910343329335545e-02  1.3728857357733597e-02  1.5668517819092828e-02  1.7710469380337854e-02  1.9829559814045706e-02  2.1994335633871119e-02  2.4167580237736883e-02  2.6307357274046556e-02  2.8368467287894619e-02  3.0304243504345667e-02  3.2068511032830281e-02  3.3617599521912442e-02  3.4912203736704304e-02  3.5918940415066547e-02  3.6611489490631671e-02  3.6971229507218359e-02  3.6987368624049562e-02  3.6656604060429566e-02  3.5982403610636968e-02  3.4974020711880001e-02  3.3645352837473899e-02  3.2013766586533675e-02  3.0098976346946769e-02  2.7922048971683697e-02  2.5504578836371347e-02  2.2868055834135932e-02  2.0033431061311852e-02  1.7020870562288314e-02  1.3849679828496990e-02  1.0538377963815035e-02  7.1048959983820281e-03  3.5668766733579589e-03  -5.7930050108423483e-05  -3.7512967648024040e-03  -7.4940462834369500e-03  -1.1265358870437558e-02  -1.5042598794740949e-02  -1.8800703914836125e-02  -2.2511885063283103e-02  -2.6145342394559911e-02  -2.9667148004055798e-02  -3.3040287650778523e-02  -3.6224921969343814e-02  -3.9178886795450799e-02  -4.1858463506178598e-02  -4.4219424835822627e-02  -4.6218347776500669e-02  -4.7814156167166340e-02  -4.8969831057093662e-02  -4.9654189065278347e-02  -4.9843625240162039e-02  -4.9523681857131935e-02  -4.8690225150848254e-02  -4.7350324578379094e-02  -4.5522508060290998e-02  -4.3236368225614545e-02  -4.0531740693288881e-02  -3.7457366218097567e-02  -3.4069248870121936e-02  -3.0428483278362149e-02  -2.6599494543948950e-02  -2.2648412094843518e-02  -1.8641436506744342e-02  -1.4643561953967236e-02  -1.0717755200949084e-02  -6.9244238320579901e-03  -3.3204322010204380e-03  4.1760179078670336e-05  3.1147688421010091e-03  5.8575187293274560e-03  8.2369748129144434e-03  1.0229827863165970e-02  1.1823573477120529e-02  1.3017729222182488e-02  1.3824110312872331e-02  1.4266266031570636e-02  1.4378065330964909e-02  1.4201491537143498e-02  1.3783906684124551e-02  1.3175109790626884e-02  1.2424517606742203e-02  1.1578742035547953e-02  1.0679701131410937e-02  9.7632717229730204e-03  8.8583958392705279e-03  7.9864580097382797e-03  7.1607717441250201e-03  6.3861437529351165e-03  5.6586478186462699e-03  4.9659439828449925e-03  4.2886826040658722e-03  3.6036090669662535e-03  2.8892347282957823e-03  2.1343079038653101e-03  1.3516405139192692e-03  5.9099585420397370e-04  -2.3227708493945291e-05  2.7299059035046646e-06  -1.5819502404378278e-03  -3.1010057168302458e-03  -4.4301638204098442e-03  -5.4809163695628653e-03  -6.1968688248703920e-03  -6.5562577234435345e-03  -6.5683471491446970e-03  -6.2683715775174271e-03  -5.7107394952755899e-03  -4.9615233050627353e-03  -4.0909479867113768e-03  -3.1665641585467900e-03  -2.2475659551477751e-03  -1.3804970283180869e-03  -5.9641410790339116e-04  9.0521751416315979e-05  6.8308381898681198e-04  1.1997039544502778e-03  1.6719422962992369e-03  2.1408399817271161e-03  2.6524407349876205e-03  3.2529777308074278e-03  3.9844147337373638e-03  4.8810617959239577e-03  5.9677946248445626e-03  7.2600282926213733e-03  8.7650849361887214e-03  1.0484158596567102e-02  1.2414019731225575e-02  1.4547830277249641e-02  1.6874820854854266e-02  1.9379088815465861e-02  2.2038083565431077e-02  2.4821337587230933e-02  2.7689843056397646e-02  3.0596299670798958e-02  3.3486240870502226e-02  3.6299929085220319e-02  3.8974831628218944e-02  4.1448478730018265e-02  4