<?xml version="1.0"?>
<VTKFile type="UnstructuredGrid"  version="0.1"  >
<UnstructuredGrid>
<Piece  NumberOfPoints="16641" NumberOfCells="16384">
<Points>
<DataArray  type="Float64"  NumberOfComponents="3"  format="ascii">0 0 0  0.0078125 0 0  0.015625 0 0  0.0234375 0 0  0.03125 0 0  0.0390625 0 0  0.046875 0 0  0.0546875 0 0  0.0625 0 0  0.0703125 0 0  0.078125 0 0  0.0859375 0 0  0.09375 0 0  0.1015625 0 0  0.109375 0 0  0.1171875 0 0  0.125 0 0  0.1328125 0 0  0.140625 0 0  0.1484375 0 0  0.15625 0 0  0.1640625 0 0  0.171875 0 0  0.1796875 0 0  0.1875 0 0  0.1953125 0 0  0.203125 0 0  0.2109375 0 0  0.21875 0 0  0.2265625 0 0  0.234375 0 0  0.2421875 0 0  0.25 0 0  0.2578125 0 0  0.265625 0 0  0.2734375 0 0  0.28125 0 0  0.2890625 0 0  0.296875 0 0  0.3046875 0 0  0.3125 0 0  0.3203125 0 0  0.328125 0 0  0.3359375 0 0  0.34375 0 0  0.3515625 0 0  0.359375 0 0  0.3671875 0 0  0.375 0 0  0.3828125 0 0  0.390625 0 0  0.3984375 0 0  0.40625 0 0  0.4140625 0 0  0.421875 0 0  0.4296875 0 0  0.4375 0 0  0.4453125 0 0  0.453125 0 0  0.4609375 0 0  0.46875 0 0  0.4765625 0 0  0.484375 0 0  0.4921875 0 0  0.5 0 0  0.5078125 0 0  0.515625 0 0  0.5234375 0 0  0.53125 0 0  0.5390625 0 0  0.546875 0 0  0.5546875 0 0  0.5625 0 0  0.5703125 0 0  0.578125 0 0  0.5859375 0 0  0.59375 0 0  0.6015625 0 0  0.609375 0 0  0.6171875 0 0  0.625 0 0  0.6328125 0 0  0.640625 0 0  0.6484375 0 0  0.65625 0 0  0.6640625 0 0  0.671875 0 0  0.6796875 0 0  0.6875 0 0  0.6953125 0 0  0.703125 0 0  0.7109375 0 0  0.71875 0 0  0.7265625 0 0  0.734375 0 0  0.7421875 0 0  0.75 0 0  0.7578125 0 0  0.765625 0 0  0.7734375 0 0  0.78125 0 0  0.7890625 0 0  0.796875 0 0  0.8046875 0 0  0.8125 0 0  0.8203125 0 0  0.828125 0 0  0.8359375 0 0  0.84375 0 0  0.8515625 0 0  0.859375 0 0  0.8671875 0 0  0.875 0 0  0.8828125 0 0  0.890625 0 0  0.8984375 0 0  0.90625 0 0  0.9140625 0 0  0.921875 0 0  0.9296875 0 0  0.9375 0 0  0.9453125 0 0  0.953125 0 0  0.9609375 0 0  0.96875 0 0  0.9765625 0 0  0.984375 0 0  0.9921875 0 0  1 0 0  0 0.0078125 0  0.0078125 0.0078125 0  0.015625 0.0078125 0  0.0234375 0.0078125 0  0.03125 0.0078125 0  0.0390625 0.0078125 0  0.046875 0.0078125 0  0.0546875 0.0078125 0  0.0625 0.0078125 0  0.0703125 0.0078125 0  0.078125 0.0078125 0  0.0859375 0.0078125 0  0.09375 0.0078125 0  0.1015625 0.0078125 0  0.109375 0.0078125 0  0.1171875 0.0078125 0  0.125 0.0078125 0  0.1328125 0.0078125 0  0.140625 0.0078125 0  0.1484375 0.0078125 0  0.15625 0.0078125 0  0.1640625 0.0078125 0  0.171875 0.0078125 0  0.1796875 0.0078125 0  0.1875 0.0078125 0  0.1953125 0.0078125 0  0.203125 0.0078125 0  0.2109375 0.0078125 0  0.21875 0.0078125 0  0.2265625 0.0078125 0  0.234375 0.0078125 0  0.2421875 0.0078125 0  0.25 0.0078125 0  0.2578125 0.0078125 0  0.265625 0.0078125 0  0.2734375 0.0078125 0  0.28125 0.0078125 0  0.2890625 0.0078125 0  0.296875 0.0078125 0  0.3046875 0.0078125 0  0.3125 0.0078125 0  0.3203125 0.0078125 0  0.328125 0.0078125 0  0.3359375 0.0078125 0  0.34375 0.0078125 0  0.3515625 0.0078125 0  0.359375 0.0078125 0  0.3671875 0.0078125 0  0.375 0.0078125 0  0.3828125 0.0078125 0  0.390625 0.0078125 0  0.3984375 0.0078125 0  0.40625 0.0078125 0  0.4140625 0.0078125 0  0.421875 0.0078125 0  0.4296875 0.0078125 0  0.4375 0.0078125 0  0.4453125 0.0078125 0  0.453125 0.0078125 0  0.4609375 0.0078125 0  0.46875 0.0078125 0  0.4765625 0.0078125 0  0.484375 0.0078125 0  0.4921875 0.0078125 0  0.5 0.0078125 0  0.5078125 0.0078125 0  0.515625 0.0078125 0  0.5234375 0.0078125 0  0.53125 0.0078125 0  0.5390625 0.0078125 0  0.546875 0.0078125 0  0.5546875 0.0078125 0  0.5625 0.0078125 0  0.5703125 0.0078125 0  0.578125 0.0078125 0  0.5859375 0.0078125 0  0.59375 0.0078125 0  0.6015625 0.0078125 0  0.609375 0.0078125 0  0.6171875 0.0078125 0  0.625 0.0078125 0  0.6328125 0.0078125 0  0.640625 0.0078125 0  0.6484375 0.0078125 0  0.65625 0.0078125 0  0.6640625 0.0078125 0  0.671875 0.0078125 0  0.6796875 0.0078125 0  0.6875 0.0078125 0  0.6953125 0.0078125 0  0.703125 0.0078125 0  0.7109375 0.0078125 0  0.71875 0.0078125 0  0.7265625 0.0078125 0  0.734375 0.0078125 0  0.7421875 0.0078125 0  0.75 0.0078125 0  0.7578125 0.0078125 0  0.765625 0.0078125 0  0.7734375 0.0078125 0  0.78125 0.0078125 0  0.7890625 0.0078125 0  0.796875 0.0078125 0  0.8046875 0.0078125 0  0.8125 0.0078125 0  0.8203125 0.0078125 0  0.828125 0.0078125 0  0.8359375 0.0078125 0  0.84375 0.0078125 0  0.8515625 0.0078125 0  0.859375 0.0078125 0  0.8671875 0.0078125 0  0.875 0.0078125 0  0.8828125 0.0078125 0  0.890625 0.0078125 0  0.8984375 0.0078125 0  0.90625 0.0078125 0  0.9140625 0.0078125 0  0.921875 0.0078125 0  0.9296875 0.0078125 0  0.9375 0.0078125 0  0.9453125 0.0078125 0  0.953125 0.0078125 0  0.9609375 0.0078125 0  0.96875 0.0078125 0  0.9765625 0.0078125 0  0.984375 0.0078125 0  0.9921875 0.0078125 0  1 0.0078125 0  0 0.015625 0  0.0078125 0.015625 0  0.015625 0.015625 0  0.0234375 0.015625 0  0.03125 0.015625 0  0.0390625 0.015625 0  0.046875 0.015625 0  0.0546875 0.015625 0  0.0625 0.015625 0  0.0703125 0.015625 0  0.078125 0.015625 0  0.0859375 0.015625 0  0.09375 0.015625 0  0.1015625 0.015625 0  0.109375 0.015625 0  0.1171875 0.015625 0  0.125 0.015625 0  0.1328125 0.015625 0  0.140625 0.015625 0  0.1484375 0.015625 0  0.15625 0.015625 0  0.1640625 0.015625 0  0.171875 0.015625 0  0.1796875 0.015625 0  0.1875 0.015625 0  0.1953125 0.015625 0  0.203125 0.015625 0  0.2109375 0.015625 0  0.21875 0.015625 0  0.2265625 0.015625 0  0.234375 0.015625 0  0.2421875 0.015625 0  0.25 0.015625 0  0.2578125 0.015625 0  0.265625 0.015625 0  0.2734375 0.015625 0  0.28125 0.015625 0  0.2890625 0.015625 0  0.296875 0.015625 0  0.3046875 0.015625 0  0.3125 0.015625 0  0.3203125 0.015625 0  0.328125 0.015625 0  0.3359375 0.015625 0  0.34375 0.015625 0  0.3515625 0.015625 0  0.359375 0.015625 0  0.3671875 0.015625 0  0.375 0.015625 0  0.3828125 0.015625 0  0.390625 0.015625 0  0.3984375 0.015625 0  0.40625 0.015625 0  0.4140625 0.015625 0  0.421875 0.015625 0  0.4296875 0.015625 0  0.4375 0.015625 0  0.4453125 0.015625 0  0.453125 0.015625 0  0.4609375 0.015625 0  0.46875 0.015625 0  0.4765625 0.015625 0  0.484375 0.015625 0  0.4921875 0.015625 0  0.5 0.015625 0  0.5078125 0.015625 0  0.515625 0.015625 0  0.5234375 0.015625 0  0.53125 0.015625 0  0.5390625 0.015625 0  0.546875 0.015625 0  0.5546875 0.015625 0  0.5625 0.015625 0  0.5703125 0.015625 0  0.578125 0.015625 0  0.5859375 0.015625 0  0.59375 0.015625 0  0.6015625 0.015625 0  0.609375 0.015625 0  0.6171875 0.015625 0  0.625 0.015625 0  0.6328125 0.015625 0  0.640625 0.015625 0  0.6484375 0.015625 0  0.65625 0.015625 0  0.6640625 0.015625 0  0.671875 0.015625 0  0.6796875 0.015625 0  0.6875 0.015625 0  0.6953125 0.015625 0  0.703125 0.015625 0  0.7109375 0.015625 0  0.71875 0.015625 0  0.7265625 0.015625 0  0.734375 0.015625 0  0.7421875 0.015625 0  0.75 0.015625 0  0.7578125 0.015625 0  0.765625 0.015625 0  0.7734375 0.015625 0  0.78125 0.015625 0  0.7890625 0.015625 0  0.796875 0.015625 0  0.8046875 0.015625 0  0.8125 0.015625 0  0.8203125 0.015625 0  0.828125 0.015625 0  0.8359375 0.015625 0  0.84375 0.015625 0  0.8515625 0.015625 0  0.859375 0.015625 0  0.8671875 0.015625 0  0.875 0.015625 0  0.8828125 0.015625 0  0.890625 0.015625 0  0.8984375 0.015625 0  0.90625 0.015625 0  0.9140625 0.015625 0  0.921875 0.015625 0  0.9296875 0.015625 0  0.9375 0.015625 0  0.9453125 0.015625 0  0.953125 0.015625 0  0.9609375 0.015625 0  0.96875 0.015625 0  0.9765625 0.015625 0  0.984375 0.015625 0  0.9921875 0.015625 0  1 0.015625 0  0 0.0234375 0  0.0078125 0.0234375 0  0.015625 0.0234375 0  0.0234375 0.0234375 0  0.03125 0.0234375 0  0.0390625 0.0234375 0  0.046875 0.0234375 0  0.0546875 0.0234375 0  0.0625 0.0234375 0  0.0703125 0.0234375 0  0.078125 0.0234375 0  0.0859375 0.0234375 0  0.09375 0.0234375 0  0.1015625 0.0234375 0  0.109375 0.0234375 0  0.1171875 0.0234375 0  0.125 0.0234375 0  0.1328125 0.0234375 0  0.140625 0.0234375 0  0.1484375 0.0234375 0  0.15625 0.0234375 0  0.1640625 0.0234375 0  0.171875 0.0234375 0  0.1796875 0.0234375 0  0.1875 0.0234375 0  0.1953125 0.0234375 0  0.203125 0.0234375 0  0.2109375 0.0234375 0  0.21875 0.0234375 0  0.2265625 0.0234375 0  0.234375 0.0234375 0  0.2421875 0.0234375 0  0.25 0.0234375 0  0.2578125 0.0234375 0  0.265625 0.0234375 0  0.2734375 0.0234375 0  0.28125 0.0234375 0  0.2890625 0.0234375 0  0.296875 0.0234375 0  0.3046875 0.0234375 0  0.3125 0.0234375 0  0.3203125 0.0234375 0  0.328125 0.0234375 0  0.3359375 0.0234375 0  0.34375 0.0234375 0  0.3515625 0.0234375 0  0.359375 0.0234375 0  0.3671875 0.0234375 0  0.375 0.0234375 0  0.3828125 0.0234375 0  0.390625 0.0234375 0  0.3984375 0.0234375 0  0.40625 0.0234375 0  0.4140625 0.0234375 0  0.421875 0.0234375 0  0.4296875 0.0234375 0  0.4375 0.0234375 0  0.4453125 0.0234375 0  0.453125 0.0234375 0  0.4609375 0.0234375 0  0.46875 0.0234375 0  0.4765625 0.0234375 0  0.484375 0.0234375 0  0.4921875 0.0234375 0  0.5 0.0234375 0  0.5078125 0.0234375 0  0.515625 0.0234375 0  0.5234375 0.0234375 0  0.53125 0.0234375 0  0.5390625 0.0234375 0  0.546875 0.0234375 0  0.5546875 0.0234375 0  0.5625 0.0234375 0  0.5703125 0.0234375 0  0.578125 0.0234375 0  0.5859375 0.0234375 0  0.59375 0.0234375 0  0.6015625 0.0234375 0  0.609375 0.0234375 0  0.6171875 0.0234375 0  0.625 0.0234375 0  0.6328125 0.0234375 0  0.640625 0.0234375 0  0.6484375 0.0234375 0  0.65625 0.0234375 0  0.6640625 0.0234375 0  0.671875 0.0234375 0  0.6796875 0.0234375 0  0.6875 0.0234375 0  0.6953125 0.0234375 0  0.703125 0.0234375 0  0.7109375 0.0234375 0  0.71875 0.0234375 0  0.7265625 0.0234375 0  0.734375 0.0234375 0  0.7421875 0.0234375 0  0.75 0.0234375 0  0.7578125 0.0234375 0  0.765625 0.0234375 0  0.7734375 0.0234375 0  0.78125 0.0234375 0  0.7890625 0.0234375 0  0.796875 0.0234375 0  0.8046875 0.0234375 0  0.8125 0.0234375 0  0.8203125 0.0234375 0  0.828125 0.0234375 0  0.8359375 0.0234375 0  0.84375 0.0234375 0  0.8515625 0.0234375 0  0.859375 0.0234375 0  0.8671
[...]
<PointData  Scalars="u_sol"> 
<DataArray  type="Float64"  Name="u_sol"  format="ascii">9.6946834235839079e-07  -2.1088970448736710e-06  -1.2845499679220850e-05  -2.2144483843748965e-05  -2.7775397377132204e-05  -2.8894167959939419e-05  -2.5369415966960201e-05  -1.7395581313543128e-05  -5.6812256633973960e-06  8.6907827668072286e-06  2.4373307913686880e-05  4.0007656139270729e-05  5.4435701546309533e-05  6.6875829875724115e-05  7.6991928103704928e-05  8.4875351928850146e-05  9.0958818230506874e-05  9.5903566646473538e-05  1.0048781440235201e-04  1.0551947654262980e-04  1.1177956436519160e-04  1.1998947498241918e-04  1.3079292768706675e-04  1.4474884034772033e-04  1.6233049129413141e-04  1.8392647250771072e-04  2.0985904249576080e-04  2.4044504199064107e-04  2.7609662214943536e-04  3.1741038033912159e-04  3.6521972714037858e-04  4.2066104680230006e-04  4.8529968627265282e-04  5.6101381357389420e-04  6.4978932145435641e-04  7.5336955554068728e-04  8.7363678135273784e-04  1.0126302692619166e-03  1.1727291734308677e-03  1.3558708994969079e-03  1.5623401404017134e-03  1.7915035993781190e-03  2.0405102422206786e-03  2.3071185957138645e-03  2.5897113527627302e-03  2.8830592528864166e-03  3.1793941419754586e-03  3.4666616103440390e-03  3.7265603262319710e-03  3.9354918220629014e-03  4.0663631233805531e-03  4.0917993123842219e-03  3.9874511645353493e-03  3.7348372205448449e-03  3.3231757418623557e-03  2.7501329835631669e-03  2.0216842691214557e-03  1.1513508755198977e-03  1.5926507357625581e-04  -9.2884879147664553e-04  -2.0821921016229983e-03  -3.2663918306451004e-03  -4.4440961260737580e-03  -5.5802591426966485e-03  -6.6670982406644205e-03  -7.6827406730436282e-03  -8.5443530021722999e-03  -9.1780725756710861e-03  -9.5418145632841355e-03  -9.5978344142975437e-03  -9.3193590545693310e-03  -8.6911393842563200e-03  -7.7116651837184740e-03  -6.3956974624797937e-03  -4.7757292913256861e-03  -2.9027372577644789e-03  -8.4546000487687649e-04  1.3120957620937803e-03  3.4750688354127650e-03  5.5439734603754849e-03  7.4221796553873677e-03  9.0238610181111595e-03  1.0281412511619042e-02  1.1151167183922497e-02  1.1616526370416311e-02  1.1688678741293694e-02  1.1402290797983373e-02  1.0813889902091735e-02  9.9871869402680946e-03  9.0004376147873062e-03  7.9462651610825111e-03  6.8740705628763223e-03  5.7934919196268725e-03  4.7114567284524209e-03  3.6509654066308440e-03  2.6526698924996591e-03  1.7429726022043551e-03  9.4154999620574232e-04  2.7661391604922610e-04  -2.3057703407806433e-04  -5.7380205920531523e-04  -7.6488006461365818e-04  -8.3264385660511018e-04  -8.1387113608514031e-04  -7.4342852974955691e-04  -6.4826083148132596e-04  -5.4716692582390688e-04  -4.5169579747435186e-04  -3.6731025758086542e-04  -2.9586154150029899e-04  -2.3726193360024486e-04  -1.9041381152222622e-04  -1.5374559417942552e-04  -1.2566660454545875e-04  -1.0462584061298402e-04  -8.9116224372235410e-05  -7.7681747075440536e-05  -6.8945838734671042e-05  -6.1656276906933276e-05  -5.4737184436862282e-05  -4.7351374124826660e-05  -3.8960076203422885e-05  -2.9390300309826436e-05  -1.8885095345502963e-05  -8.1487336410678168e-06  1.4959629148694028e-06  8.1378905924224257e-06  7.3660925102477705e-06  -8.3560495453886835e-07  6.1177859947764784e-06  -3.2782837377840061e-05  -9.0059401418689805e-05  -1.0612802764565684e-04  -4.6642417323990494e-05  1.0621488789691895e-04  3.5654000033181923e-04  6.9727381322715607e-04  1.1123250056594709e-03  1.5791670885123737e-03  2.0720968800746115e-03  2.5656742495985024e-03  3.0378655125384096e-03  3.4723560111145075e-03  3.8597809557875873e-03  4.1978351525212591e-03  4.4904555423003114e-03  4.7463889367544395e-03  4.9774873199334877e-03  5.1970063758150315e-03  5.4180858193765237e-03  5.6524944262075268e-03  5.9096477115182493e-03  6.1958722889809553e-03  6.5139104664119658e-03  6.8626994902837232e-03  7.2374583157745389e-03  7.6300785766970159e-03  8.0297584264137495e-03  8.4237430647687312e-03  8.7978584430524909e-03  9.1363235390486668e-03  9.4205763518154760e-03  9.6277238686500281e-03  9.7288639734892015e-03  9.6877716587861866e-03  9.4592172920640975e-03  8.9883254419208698e-03  8.2102087005592409e-03  7.0513702683729805e-03  5.4320530202936384e-03  3.2667036428150470e-03  4.6776092365869912e-04  -3.0520353647730046e-03  -7.3749229288293952e-03  -1.2570427494413214e-02  -1.8689328184659314e-02  -2.5752995146165896e-02  -3.3743459150287515e-02  -4.2598391970922619e-02  -5.2210844800244648e-02  -6.2434320150715969e-02  -7.3091321211814456e-02  -8.3983695285152357e-02  -9.4902983647965344e-02  -1.0563952757445839e-01  -1.1598962280438681e-01  -1.2576046128501098e-01  -1.3477307409558423e-01  -1.4286351642469594e-01  -1.4988307083745653e-01  -1.5569695162420549e-01  -1.6018360463670850e-01  -1.6323183516252854e-01  -1.6472151997644827e-01  -1.6455681960626317e-01  -1.6270205313857805e-01  -1.5912700114318601e-01  -1.5380099812775871e-01  -1.4672011300772367e-01  -1.3790463952746407e-01  -1.2740745629478481e-01  -1.1531827866386550e-01  -1.0176830081423757e-01  -8.6933885337818192e-02  -7.1037722526019975e-02  -5.4347450286881115e-02  -3.7170615087827499e-02  -1.9845850180749657e-02  -2.7303494922080937e-03  1.3815699757024081e-02  2.9446471502631136e-02  4.3848038740002239e-02  5.6754149287374753e-02  6.7958844146142172e-02  7.7323332130071643e-02  8.4779505703304336e-02  9.0322504734981615e-02  9.4007717885172440e-02  9.5926780060930014e-02  9.6183406347312358e-02  9.4914363085475073e-02  9.2273859960894655e-02  8.8408678364323437e-02  8.3438008486227025e-02  7.7446376062075328e-02  7.0537577352624434e-02  6.2862934258981262e-02  5.4627558956194984e-02  4.6110816408132714e-02  3.7658366769541748e-02  2.9641714665058033e-02  2.2397881122689034e-02  1.6167737026895983e-02  1.1061418051080884e-02  7.0623292032590780e-03  4.0609209117166110e-03  1.8970291044024135e-03  3.9631956203107279e-04  -6.0417115989162048e-04  -1.2428384927181731e-03  -1.6299059862573764e-03  -1.8488114986022163e-03  -1.9592252118816526e-03  -2.0008830575088676e-03  -1.9975268508058072e-03  -1.9607989112544015e-03  -1.8940111102292690e-03  -1.7956522164527847e-03  -1.6625241879873367e-03  -1.4924222068797128e-03  -1.2863252948607841e-03  -1.0500165665417553e-03  -7.9513824882572199e-04  -5.3946514713298531e-04  -3.0670180619287146e-04  -1.2417499132137910e-04  -1.9664021597096219e-05  4.4350686690663801e-06  5.8096480825041497e-06  -3.1322997628249497e-05  -6.4514827026887999e-05  -1.8619499030924689e-05  1.5033251735199093e-04  4.6650683245411513e-04  9.3353957445356593e-04  1.5380304154537768e-03  2.2530079905043478e-03  3.0425410912776523e-03  3.8668231190076836e-03  4.6872460940589776e-03  5.4707431714730781e-03  6.1928933337020414e-03  6.8394913715703106e-03  7.4066083199199450e-03  7.8994001379657525e-03  8.3300503669119647e-03  8.7152608415130509e-03  9.0736595960185674e-03  9.4233892379703837e-03  9.7800141934887477e-03  1.0154798153480939e-02  1.0553366931327910e-02  1.0974750019295106e-02  1.1410795850420121e-02  1.1846002051091207e-02  1.2257798135238095e-02  1.2617136470560664e-02  1.2888874295263510e-02  1.3031483660534240e-02  1.2996140696114837e-02  1.2725054260072182e-02  1.2148331478526581e-02  1.1180580580781046e-02  9.7185942049891911e-03  7.6421861067137355e-03  4.8160438752203874e-03  1.0931064163095161e-03  -3.6808056019195842e-03  -9.6601147505760952e-03  -1.6988116276239223e-02  -2.5783750841432036e-02  -3.6121565761309517e-02  -4.8009599178281924e-02  -6.1371909746477854e-02  -7.6041161310950664e-02  -9.1767054278620946e-02  -1.0823601198972793e-01  -1.2509716142407629e-01  -1.4198954776488060e-01  -1.5856585498814157e-01  -1.7451035106749507e-01  -1.8955007145833500e-01  -2.0345973140594459e-01  -2.1606155912256311e-01  -2.2722156229854604e-01  -2.3684370508157140e-01  -2.4486321382588400e-01  -2.5123999206948794e-01  -2.5595268908533375e-01  -2.5899423342237382e-01  -2.6036803620522708e-01  -2.6008557207023913e-01  -2.5817778541348241e-01  -2.5466892974464372e-01  -2.4955015373574782e-01  -2.4282282159186006e-01  -2.3450170913646390e-01  -2.2460293081884716e-01  -2.1315655397147013e-01  -2.0020669880645844e-01  -1.8581870044608775e-01  -1.7008400023067688e-01  -1.5312486632913430e-01  -1.3509844521600842e-01  -1.1619833298049501e-01  -9.6653684371656293e-02  -7.6724787241186809e-02  -5.6695139031083287e-02  -3.6860378435774895e-02  -1.7515143198751991e-02  1.0605173834951473e-03  1.8613606507994453e-02  3.4927457784784580e-02  4.9828270556141460e-02  6.3185368950377088e-02  7.4911894893401360e-02  8.4955657991954578e-02  9.3298278577915020e-02  9.9951336417224937e-02  1.0492431989133874e-01  1.0821660324186481e-01  1.0980199984583294e-01  1.0964519582726001e-01  1.0773582634216876e-01  1.0404846668433582e-01  9.8547997530206877e-02  9.1258396343571330e-02  8.2316440295576429e-02  7.2022983246210259e-02  6.0869554955369998e-02  4.9502226440693291e-02  3.8617343062064942e-02  2.8818502801725505e-02  2.0498336555117114e-02  1.3797453325278396e-02  8.6440756358907318e-03  4.8350537399005095e-03  2.1146848854946875e-03  2.2959311947407085e-04  -1.0412791249125863e-03  -1.8752653533812818e-03  -2.4059577486481533e-03  -2.7280203553492672e-03  -2.9039684560707179e-03  -2.9715570803844709e-03  -2.9509525821618263e-03  -2.8512967975086881e-03  -2.6764212242853624e-03  -2.4296091164614773e-03  -2.1173464164836674e-03  -1.7520362221446280e-03  -1.3535950881262415e-03  -9.4985404184470498e-04  -5.7536228393092906e-04  -2.6831940673254537e-04  -6.3361073782370545e-05  1.2421059288237233e-05  2.4210607485592085e-06  -1.3393853629497699e-05  1.0611859357358307e-05  1.5146863368780761e-04  4.5472229744284457e-04  9.4271213485587458e-04  1.6138654344960805e-03  2.4462565693377440e-03  3.4022957814968729e-03  4.4348994670578628e-03  5.4940814711323420e-03  6.5331230053156091e-03  7.5134818645245611e-03  8.4079091891153153e-03  9.2016611496109919e-03  9.8919784517008287e-03  1.0486213159279750e-02  1.0999087425757581e-02  1.1449546457059083e-02  1.1857568492710109e-02  1.2241173310137502e-02  1.2613777253466961e-02  1.2981945581033405e-02  1.3343521212999728e-02  1.3686137443552319e-02  1.3986198363667827e-02  1.4208326309981766e-02  1.4305022181147906e-02  1.4216343217440719e-02  1.3869667082617073e-02  1.3178737733606768e-02  1.2040627951294944e-02  1.0331473670180596e-02  7.9038447269594980e-03  4.5861660403698507e-03  1.8468281862268776e-04  -5.5111677564895498e-03  -1.2717701213442819e-02  -2.1642074241537641e-02  -3.2461458882965345e-02  -4.5292431883837643e-02  -6.0154816264767749e-02  -7.6940202087647083e-02  -9.5401097631808318e-02  -1.1516529876499224e-01  -1.3577125691723305e-01  -1.5671576727705999e-01  -1.7750256171725667e-01  -1.9768322835239699e-01  -2.1688474772348260e-01  -2.3482254681835865e-01  -2.5130094184304735e-01  -2.6620430150758129e-01  -2.7948280364787614e-01  -2.9113608330067320e-01  -3.0119728278306007e-01  -3.0971903539199436e-01  -3.1676211014374239e-01  -3.2238682377263034e-01  -3.2664690539130331e-01  -3.2958528714789131e-01  -3.3123093761504452e-01  -3.3159673514637622e-01  -3.3067744708730712e-01  -3.2843711194469016e-01  -3.2483162805558496e-01  -3.1983914203743941e-01  -3.1343001344474447e-01  -3.0556522338093034e-01  -2.9621115276388921e-01  -2.8533765981028680e-01  -2.7292774467625180e-01  -2.5898265455328756e-01  -2.4353018021993086e-01  -2.2663278174300755e-01  -2.0839512292670773e-01  -1.8897035262204817e-01  -1.6856306573904145e-01  -1.4742789550421245e-01  -1.2586231293704384e-01  -1.0419333889335868e-01  -8.2758910517347364e-02  -6.1886015595437244e-02  -4.1868825717930040e-02  -2.2950201375837722e-02  -5.3103054695277348e-03  1.0937626447954062e-02  2.5741141516294672e-02  3.9099950019154513e-02  5.1045161632870768e-02  6.1623468320846898e-02  7.0896844905584427e-02  7.8917498708743636e-02  8.5722984817243622e-02  9.1292327096077000e-02  9.5487826107160487e-02  9.8115605550736507e-02  9.8956138025336690e-02  9.7746220450157850e-02  9.4238449976107336e-02  8.8301265907119814e-02  8.0028049433697498e-02  6.9826866551092187e-02  5.8425327618406894e-02  4.6752488205615200e-02  3.5724604477302697e-02  2.6031848460142979e-02  1.8028027660640086e-02  1.1752286026923350e-02  7.0319599208803346e-03  3.5964657834187523e-03  1.1603599619643766e-03  -5.3099857716018464e-04  -1.6828638332515174e-03  -2.4489358980292171e-03  -2.9372392260562838e-03  -3.2190440056941872e-03  -3.3384924913788454e-03  -3.3216365763632212e-03  -3.1843152650450411e-03  -2.9386414034940599e-03  -2.5980606550576987e-03  -2.1809990350208533e-03  -1.7130626425681545e-03  -1.2277959382077357e-03  -7.6562294278481569e-04  -3.7185796581679315e-04  -9.2271257225246553e-05  1.8160228936763168e-05  -2.0748474550132132e-06  9.4758897652995246e-06  1.0790182501939043e-04  3.6511223568852936e-04  8.2291133850307373e-04  1.4968719215671942e-03  2.3755628552779200e-03  3.4247022645151255e-03  4.5933831682888251e-03  5.8221070902179312e-03  7.0511169253688897e-03  8.2276639447993287e-03  9.3111773220281406e-03  1.0275897528393254e-02  1.1111008091669806e-02  1.1818778878858415e-02  1.2411407061732939e-02  1.2907193890454473e-02  1.3326549020946373e-02  1.3688151905274429e-02  1.4005457632530709e-02  1.4283580871199278e-02  1.4516546205870624e-02  1.4684944799200010e-02  1.4753987113766819e-02  1.4671768232055874e-02  1.4367837703472979e-02  1.3752458541469871e-02  1.2715761302238320e-02  1.1125249282259712e-02  8.8223625360008360e-03  5.6198679334999568e-03  1.2998844040996217e-03  -4.3854065285113871e-03  -1.1704678111984260e-02  -2.0929843388277133e-02  -3.2311380369200948e-02  -4.6043349174229829e-02  -6.2215010786407760e-02  -8.0760326120510734e-02  -1.0142726377777110e-01  -1.2378224923150739e-01  -1.4725273981208001e-01  -1.7119597637822268e-01  -1.9497537917915345e-01  -2.1802699805866971e-01  -2.3990417817650603e-01  -2.6029658447833348e-01  -2.7902648370923777e-01  -2.9602907983271637e-01  -3.1132443693358708e-01  -3.2498775457961387e-01  -3.3712272343534244e-01  -3.4784052435226015e-01  -3.5724523602703623e-01  -3.6542511652524096e-01  -3.7244858224507355e-01  -3.7836349241723638e-01  -3.8319849178687954e-01  -3.8696546608485255e-01  -3.8966253169117876e-01  -3.9127744723115204e-01  -3.9179092407103289e-01  -3.9118002070650476e-01  -3.8943006053788470e-01  -3.8652200611999910e-01  -3.8241051460186809e-01  -3.7704335158651919e-01  -3.7036485916942058e-01  -3.6231042394806690e-01  -3.5281343177042424e-01  -3.4180650766026494e-01  -3.2922861172163703e-01  -3.1503239143254591e-01  -2.9919436036671487e-01  -2.8172698966347060e-01  -2.6269170035352329e-01  -2.4221148639065448e-01  -2.2048051873498065e-01  -1.9776806675652547e-01  -1.7441386764405770e-01  -1.5081316003167322e-01  -1.2739142852605359e-01  -1.0457138213684317e-01  -8.2737146484634344e-02  -6.2201769950028997e-02  -4.3184349844577669e-02  -2.5799749358717008e-02  -1.0063831434482862e-02  4.0928749499293277e-03  1.6799902840649198e-02  2.8213690843248287e-02  3.8498250704507415e-02  4.7785009839850706e-02  5.6177145380752691e-02  6.3766573059224785e-02  7.0525981034187418e-02  7.6261350365903216e-02  8.0662095496160546e-02  8.3308153712072272e-02  8.3716103102674272e-02  8.1464523888594681e-02  7.6361935535538342e-02  6.8609688489166737e-02  5.8865039374710215e-02  4.8131160261913844e-02  3.7495340292286052e-02  2.7842672397191064e-02  1.9688657679103164e-02  1.3180149330221895e-02  8.2050839222535411e-03  4.5226349402335119e-03  1.8610148328905701e-03  -2.7629320498564861e-05  -1.3444319759505078e-03  -2.2400257564849611e-03  -2.8203754326601533e-03  -3.1562858279470915e-03  -3.2935567036232760e-03  -3.2622763773348298e-03  -3.0846620120275046e-03  -2.7812708560950280e-03  -2.3756157350669021e-03  -1.8972124422157338e-03  -1.3831704562021962e-03  -8.7819052220590053e-04  -4.3438613261250771e-04  -1.0941691935124694e-04  2.1583922238061925e-05  -6.9484393404250371e-06  3.3881446634447921e-05  2.1660366140068303e-04  6.0801880141270702e-04  1.2428082686723988e-03  2.1253179655846793e-03  3.2288820173543759e-03  4.5012903080834587e-03  5.8734122698210238e-03  7.2699952217638716e-03  8.6203061073884431e-03  9.8666925481693153e-03  1.0969734868901697e-02  1.1909607931742734e-02  1.2684249803036956e-02  1.3305320180784484e-02  1.3793011834183798e-02  1.4170568992853306e-02  1.4459062780775880e-02  1.4672669863914313e-02  1.4814476934861532e-02  1.4872827963191467e-02  1.4818155062932757e-02  1.4600026191767285e-02  1.4144444292422230e-02  1.3351942921912651e-02  1.2095968717584974e-02  1.0220457480918939e-02  7.5375518517179331e-03  3.8260320943663086e-03  -1.1711940094905394e-03  -7.7471753954479368e-03  -1.6220841107116378e-02  -2.6914812479324004e-02  -4.0121045219712388e-02  -5.6049533152002992e-02  -7.4762542011417660e-02  -9.6113102440260334e-02  -1.1971542917220061e-01  -1.4496697052041049e-01  -1.7112111948637579e-01  -1.9739006315582194e-01  -2.2304784084540588e-01  -2.4750843239229012e-01  -2.7036601246828129e-01  -2.9139710222952681e-01  -3.1053386433878777e-01  -3.2782195406117787e-01  -3.4337532742419835e-01  -3.5733701283172625e-01  -3.6985060306598422e-01  -3.8104329631793971e-01  -3.9101881838239028e-01  -3.9985732491389314e-01  -4.0761927138369564e-01  -4.1435079276312903e-01  -4.2008891591129593e-01  -4.2486569206655866e-01  -4.2871087381882744e-01  -4.3165306703731504e-01  -4.3371937297974134e-01  -4.3493344415202195e-01  -4.3531232949913590e-01  -4.3486248806626437e-01  -4.3357029997049651e-01  -4.3140792323605087e-01  -4.2834573890037175e-01  -4.2434051806304712e-01  -4.1933250554600376e-01  -4.1324777227731069e-01  -4.0599515903237221e-01  -3.9746835061349162e-01  -3.8754719599338022e-01  -3.7610289877107655e-01  -3.6300607092302628e-01  -3.4813912126460655e-01  -3.3141316530914006e-01  -3.1278883201293872e-01  -2.9229935118549738e-01  -2.7007251373014574e-01  -2.4634689897837234e-01  -2.2147696371996647e-01  -1.9592232580751714e-01  -1.7021904083165562e-01  -1.4493465480562556e-01  -1.2061347820018241e-01  -9.7721721252891802e-02  -7.6603299235490044e-02  -5.7454078301504390e-02  -4.0318746021499527e-02  -2.5107926800187797e-02  -1.1629622840270566e-02  3.6887673644335787e-04  1.1170596359357660e-02  2.1034998800208041e-02  3.0144303041224681e-02  3.8643091910409814e-02  4.6609399289644665e-02  5.3951211347307702e-02  6.0395337713019540e-02  6.5494955669747737e-02  6.8662964534388499e-02  6.9299675189363530e-02  6.6998461010625551e-02  6.1766823695943079e-02  5.4139321010567683e-02  4.5081551985212930e-02  3.5706808427444732e-02  2.6957394601855519e-02  1.9414704031466619e-02  1.3290162551899663e-02  8.5308238973684919e-03  4.9469077369401655e-03  2.3083297631525963e-03  3.9997157309732090e-04  -9.5468210683635789e-04  -1.8888201294927072e-03  -2.4971541124279729e-03  -2.8445300407836408e-03  -2.9752031979839752e-03  -2.9212890955592169e-03  -2.7098347974584967e-03  -2.3683792037680557e-03  -1.9290240566562100e-03  -1.4311723418794105e-03  -9.2289787457727822e-04  -4.6239669119409692e-04  -1.1742136240036207e-04  2.3206175562577115e-05  -1.2163119508695454e-05  5.9784737176202645e-05  3.3724766175461995e-04  8.8380451197514356e-04  1.7243421075903730e-03  2.8468478838744068e-03  4.2024437506672629e-03  5.7135335692199418e-03  7.2863591632275392e-03  8.8259020682658392e-03  1.0249634913259959e-02  1.1497256705949579e-02  1.2534938451611627e-02  1.3354319264696190e-02  1.3967503524560032e-02  1.4399810643630396e-02  1.4681797698164977e-02  1.4841587506248073e-02  1.4897969016315103e-02  1.4854416391420565e-02  1.4694062632051719e-02  1.4375344668206539e-02  1.3828168518454457e-02  1.2950984864084400e-02  1.1608344905442210e-02  9.6280295004033435e-03  6.7991556836680461e-03  2.8718449997275652e-03  -2.4440394355284300e-03  -9.4783629966615403e-03  -1.8591132198492653e-02  -3.0150176720024187e-02  -4.4491108489003027e-02  -6.1852925594732183e-02  -8.2295226413377456e-02  -1.0562229044796828e-01  -1.3134929074393956e-01  -1.5873654194660725e-01  -1.8688977604717841e-01