<?xml version="1.0"?>
<VTKFile type="UnstructuredGrid"  version="0.1"  >
<UnstructuredGrid>
<Piece  NumberOfPoints="16641" NumberOfCells="16384">
<Points>
<DataArray  type="Float64"  NumberOfComponents="3"  format="ascii">0 0 0  0.0078125 0 0  0.015625 0 0  0.0234375 0 0  0.03125 0 0  0.0390625 0 0  0.046875 0 0  0.0546875 0 0  0.0625 0 0  0.0703125 0 0  0.078125 0 0  0.0859375 0 0  0.09375 0 0  0.1015625 0 0  0.109375 0 0  0.1171875 0 0  0.125 0 0  0.1328125 0 0  0.140625 0 0  0.1484375 0 0  0.15625 0 0  0.1640625 0 0  0.171875 0 0  0.1796875 0 0  0.1875 0 0  0.1953125 0 0  0.203125 0 0  0.2109375 0 0  0.21875 0 0  0.2265625 0 0  0.234375 0 0  0.2421875 0 0  0.25 0 0  0.2578125 0 0  0.265625 0 0  0.2734375 0 0  0.28125 0 0  0.2890625 0 0  0.296875 0 0  0.3046875 0 0  0.3125 0 0  0.3203125 0 0  0.328125 0 0  0.3359375 0 0  0.34375 0 0  0.3515625 0 0  0.359375 0 0  0.3671875 0 0  0.375 0 0  0.3828125 0 0  0.390625 0 0  0.3984375 0 0  0.40625 0 0  0.4140625 0 0  0.421875 0 0  0.4296875 0 0  0.4375 0 0  0.4453125 0 0  0.453125 0 0  0.4609375 0 0  0.46875 0 0  0.4765625 0 0  0.484375 0 0  0.4921875 0 0  0.5 0 0  0.5078125 0 0  0.515625 0 0  0.5234375 0 0  0.53125 0 0  0.5390625 0 0  0.546875 0 0  0.5546875 0 0  0.5625 0 0  0.5703125 0 0  0.578125 0 0  0.5859375 0 0  0.59375 0 0  0.6015625 0 0  0.609375 0 0  0.6171875 0 0  0.625 0 0  0.6328125 0 0  0.640625 0 0  0.6484375 0 0  0.65625 0 0  0.6640625 0 0  0.671875 0 0  0.6796875 0 0  0.6875 0 0  0.6953125 0 0  0.703125 0 0  0.7109375 0 0  0.71875 0 0  0.7265625 0 0  0.734375 0 0  0.7421875 0 0  0.75 0 0  0.7578125 0 0  0.765625 0 0  0.7734375 0 0  0.78125 0 0  0.7890625 0 0  0.796875 0 0  0.8046875 0 0  0.8125 0 0  0.8203125 0 0  0.828125 0 0  0.8359375 0 0  0.84375 0 0  0.8515625 0 0  0.859375 0 0  0.8671875 0 0  0.875 0 0  0.8828125 0 0  0.890625 0 0  0.8984375 0 0  0.90625 0 0  0.9140625 0 0  0.921875 0 0  0.9296875 0 0  0.9375 0 0  0.9453125 0 0  0.953125 0 0  0.9609375 0 0  0.96875 0 0  0.9765625 0 0  0.984375 0 0  0.9921875 0 0  1 0 0  0 0.0078125 0  0.0078125 0.0078125 0  0.015625 0.0078125 0  0.0234375 0.0078125 0  0.03125 0.0078125 0  0.0390625 0.0078125 0  0.046875 0.0078125 0  0.0546875 0.0078125 0  0.0625 0.0078125 0  0.0703125 0.0078125 0  0.078125 0.0078125 0  0.0859375 0.0078125 0  0.09375 0.0078125 0  0.1015625 0.0078125 0  0.109375 0.0078125 0  0.1171875 0.0078125 0  0.125 0.0078125 0  0.1328125 0.0078125 0  0.140625 0.0078125 0  0.1484375 0.0078125 0  0.15625 0.0078125 0  0.1640625 0.0078125 0  0.171875 0.0078125 0  0.1796875 0.0078125 0  0.1875 0.0078125 0  0.1953125 0.0078125 0  0.203125 0.0078125 0  0.2109375 0.0078125 0  0.21875 0.0078125 0  0.2265625 0.0078125 0  0.234375 0.0078125 0  0.2421875 0.0078125 0  0.25 0.0078125 0  0.2578125 0.0078125 0  0.265625 0.0078125 0  0.2734375 0.0078125 0  0.28125 0.0078125 0  0.2890625 0.0078125 0  0.296875 0.0078125 0  0.3046875 0.0078125 0  0.3125 0.0078125 0  0.3203125 0.0078125 0  0.328125 0.0078125 0  0.3359375 0.0078125 0  0.34375 0.0078125 0  0.3515625 0.0078125 0  0.359375 0.0078125 0  0.3671875 0.0078125 0  0.375 0.0078125 0  0.3828125 0.0078125 0  0.390625 0.0078125 0  0.3984375 0.0078125 0  0.40625 0.0078125 0  0.4140625 0.0078125 0  0.421875 0.0078125 0  0.4296875 0.0078125 0  0.4375 0.0078125 0  0.4453125 0.0078125 0  0.453125 0.0078125 0  0.4609375 0.0078125 0  0.46875 0.0078125 0  0.4765625 0.0078125 0  0.484375 0.0078125 0  0.4921875 0.0078125 0  0.5 0.0078125 0  0.5078125 0.0078125 0  0.515625 0.0078125 0  0.5234375 0.0078125 0  0.53125 0.0078125 0  0.5390625 0.0078125 0  0.546875 0.0078125 0  0.5546875 0.0078125 0  0.5625 0.0078125 0  0.5703125 0.0078125 0  0.578125 0.0078125 0  0.5859375 0.0078125 0  0.59375 0.0078125 0  0.6015625 0.0078125 0  0.609375 0.0078125 0  0.6171875 0.0078125 0  0.625 0.0078125 0  0.6328125 0.0078125 0  0.640625 0.0078125 0  0.6484375 0.0078125 0  0.65625 0.0078125 0  0.6640625 0.0078125 0  0.671875 0.0078125 0  0.6796875 0.0078125 0  0.6875 0.0078125 0  0.6953125 0.0078125 0  0.703125 0.0078125 0  0.7109375 0.0078125 0  0.71875 0.0078125 0  0.7265625 0.0078125 0  0.734375 0.0078125 0  0.7421875 0.0078125 0  0.75 0.0078125 0  0.7578125 0.0078125 0  0.765625 0.0078125 0  0.7734375 0.0078125 0  0.78125 0.0078125 0  0.7890625 0.0078125 0  0.796875 0.0078125 0  0.8046875 0.0078125 0  0.8125 0.0078125 0  0.8203125 0.0078125 0  0.828125 0.0078125 0  0.8359375 0.0078125 0  0.84375 0.0078125 0  0.8515625 0.0078125 0  0.859375 0.0078125 0  0.8671875 0.0078125 0  0.875 0.0078125 0  0.8828125 0.0078125 0  0.890625 0.0078125 0  0.8984375 0.0078125 0  0.90625 0.0078125 0  0.9140625 0.0078125 0  0.921875 0.0078125 0  0.9296875 0.0078125 0  0.9375 0.0078125 0  0.9453125 0.0078125 0  0.953125 0.0078125 0  0.9609375 0.0078125 0  0.96875 0.0078125 0  0.9765625 0.0078125 0  0.984375 0.0078125 0  0.9921875 0.0078125 0  1 0.0078125 0  0 0.015625 0  0.0078125 0.015625 0  0.015625 0.015625 0  0.0234375 0.015625 0  0.03125 0.015625 0  0.0390625 0.015625 0  0.046875 0.015625 0  0.0546875 0.015625 0  0.0625 0.015625 0  0.0703125 0.015625 0  0.078125 0.015625 0  0.0859375 0.015625 0  0.09375 0.015625 0  0.1015625 0.015625 0  0.109375 0.015625 0  0.1171875 0.015625 0  0.125 0.015625 0  0.1328125 0.015625 0  0.140625 0.015625 0  0.1484375 0.015625 0  0.15625 0.015625 0  0.1640625 0.015625 0  0.171875 0.015625 0  0.1796875 0.015625 0  0.1875 0.015625 0  0.1953125 0.015625 0  0.203125 0.015625 0  0.2109375 0.015625 0  0.21875 0.015625 0  0.2265625 0.015625 0  0.234375 0.015625 0  0.2421875 0.015625 0  0.25 0.015625 0  0.2578125 0.015625 0  0.265625 0.015625 0  0.2734375 0.015625 0  0.28125 0.015625 0  0.2890625 0.015625 0  0.296875 0.015625 0  0.3046875 0.015625 0  0.3125 0.015625 0  0.3203125 0.015625 0  0.328125 0.015625 0  0.3359375 0.015625 0  0.34375 0.015625 0  0.3515625 0.015625 0  0.359375 0.015625 0  0.3671875 0.015625 0  0.375 0.015625 0  0.3828125 0.015625 0  0.390625 0.015625 0  0.3984375 0.015625 0  0.40625 0.015625 0  0.4140625 0.015625 0  0.421875 0.015625 0  0.4296875 0.015625 0  0.4375 0.015625 0  0.4453125 0.015625 0  0.453125 0.015625 0  0.4609375 0.015625 0  0.46875 0.015625 0  0.4765625 0.015625 0  0.484375 0.015625 0  0.4921875 0.015625 0  0.5 0.015625 0  0.5078125 0.015625 0  0.515625 0.015625 0  0.5234375 0.015625 0  0.53125 0.015625 0  0.5390625 0.015625 0  0.546875 0.015625 0  0.5546875 0.015625 0  0.5625 0.015625 0  0.5703125 0.015625 0  0.578125 0.015625 0  0.5859375 0.015625 0  0.59375 0.015625 0  0.6015625 0.015625 0  0.609375 0.015625 0  0.6171875 0.015625 0  0.625 0.015625 0  0.6328125 0.015625 0  0.640625 0.015625 0  0.6484375 0.015625 0  0.65625 0.015625 0  0.6640625 0.015625 0  0.671875 0.015625 0  0.6796875 0.015625 0  0.6875 0.015625 0  0.6953125 0.015625 0  0.703125 0.015625 0  0.7109375 0.015625 0  0.71875 0.015625 0  0.7265625 0.015625 0  0.734375 0.015625 0  0.7421875 0.015625 0  0.75 0.015625 0  0.7578125 0.015625 0  0.765625 0.015625 0  0.7734375 0.015625 0  0.78125 0.015625 0  0.7890625 0.015625 0  0.796875 0.015625 0  0.8046875 0.015625 0  0.8125 0.015625 0  0.8203125 0.015625 0  0.828125 0.015625 0  0.8359375 0.015625 0  0.84375 0.015625 0  0.8515625 0.015625 0  0.859375 0.015625 0  0.8671875 0.015625 0  0.875 0.015625 0  0.8828125 0.015625 0  0.890625 0.015625 0  0.8984375 0.015625 0  0.90625 0.015625 0  0.9140625 0.015625 0  0.921875 0.015625 0  0.9296875 0.015625 0  0.9375 0.015625 0  0.9453125 0.015625 0  0.953125 0.015625 0  0.9609375 0.015625 0  0.96875 0.015625 0  0.9765625 0.015625 0  0.984375 0.015625 0  0.9921875 0.015625 0  1 0.015625 0  0 0.0234375 0  0.0078125 0.0234375 0  0.015625 0.0234375 0  0.0234375 0.0234375 0  0.03125 0.0234375 0  0.0390625 0.0234375 0  0.046875 0.0234375 0  0.0546875 0.0234375 0  0.0625 0.0234375 0  0.0703125 0.0234375 0  0.078125 0.0234375 0  0.0859375 0.0234375 0  0.09375 0.0234375 0  0.1015625 0.0234375 0  0.109375 0.0234375 0  0.1171875 0.0234375 0  0.125 0.0234375 0  0.1328125 0.0234375 0  0.140625 0.0234375 0  0.1484375 0.0234375 0  0.15625 0.0234375 0  0.1640625 0.0234375 0  0.171875 0.0234375 0  0.1796875 0.0234375 0  0.1875 0.0234375 0  0.1953125 0.0234375 0  0.203125 0.0234375 0  0.2109375 0.0234375 0  0.21875 0.0234375 0  0.2265625 0.0234375 0  0.234375 0.0234375 0  0.2421875 0.0234375 0  0.25 0.0234375 0  0.2578125 0.0234375 0  0.265625 0.0234375 0  0.2734375 0.0234375 0  0.28125 0.0234375 0  0.2890625 0.0234375 0  0.296875 0.0234375 0  0.3046875 0.0234375 0  0.3125 0.0234375 0  0.3203125 0.0234375 0  0.328125 0.0234375 0  0.3359375 0.0234375 0  0.34375 0.0234375 0  0.3515625 0.0234375 0  0.359375 0.0234375 0  0.3671875 0.0234375 0  0.375 0.0234375 0  0.3828125 0.0234375 0  0.390625 0.0234375 0  0.3984375 0.0234375 0  0.40625 0.0234375 0  0.4140625 0.0234375 0  0.421875 0.0234375 0  0.4296875 0.0234375 0  0.4375 0.0234375 0  0.4453125 0.0234375 0  0.453125 0.0234375 0  0.4609375 0.0234375 0  0.46875 0.0234375 0  0.4765625 0.0234375 0  0.484375 0.0234375 0  0.4921875 0.0234375 0  0.5 0.0234375 0  0.5078125 0.0234375 0  0.515625 0.0234375 0  0.5234375 0.0234375 0  0.53125 0.0234375 0  0.5390625 0.0234375 0  0.546875 0.0234375 0  0.5546875 0.0234375 0  0.5625 0.0234375 0  0.5703125 0.0234375 0  0.578125 0.0234375 0  0.5859375 0.0234375 0  0.59375 0.0234375 0  0.6015625 0.0234375 0  0.609375 0.0234375 0  0.6171875 0.0234375 0  0.625 0.0234375 0  0.6328125 0.0234375 0  0.640625 0.0234375 0  0.6484375 0.0234375 0  0.65625 0.0234375 0  0.6640625 0.0234375 0  0.671875 0.0234375 0  0.6796875 0.0234375 0  0.6875 0.0234375 0  0.6953125 0.0234375 0  0.703125 0.0234375 0  0.7109375 0.0234375 0  0.71875 0.0234375 0  0.7265625 0.0234375 0  0.734375 0.0234375 0  0.7421875 0.0234375 0  0.75 0.0234375 0  0.7578125 0.0234375 0  0.765625 0.0234375 0  0.7734375 0.0234375 0  0.78125 0.0234375 0  0.7890625 0.0234375 0  0.796875 0.0234375 0  0.8046875 0.0234375 0  0.8125 0.0234375 0  0.8203125 0.0234375 0  0.828125 0.0234375 0  0.8359375 0.0234375 0  0.84375 0.0234375 0  0.8515625 0.0234375 0  0.859375 0.0234375 0  0.8671
[...]
<PointData  Scalars="v_sol"> 
<DataArray  type="Float64"  Name="v_sol"  format="ascii">-9.5658389495737053e-07  -6.0558721572196327e-06  -5.0641659028776624e-06  3.7235009829851311e-07  8.2041668516307391e-06  1.7017002339335949e-05  2.5693520817384848e-05  3.3318613707827533e-05  3.9165562895447676e-05  4.2778148469690118e-05  4.4009656456959563e-05  4.3031708571871474e-05  4.0276568051149107e-05  3.6346002232845277e-05  3.1903030597803211e-05  2.7572807712106783e-05  2.3868825409292991e-05  2.1153527908983084e-05  1.9629807560144794e-05  1.9352622265470895e-05  2.0252354080232476e-05  2.2162865684207308e-05  2.4844401295178234e-05  2.8001662060649961e-05  3.1310020553987918e-05  3.4447947167690122e-05  3.7118722355163769e-05  3.9068241832699054e-05  4.0118960422602238e-05  4.0191083063728098e-05  3.9239150125036387e-05  3.7124921926799780e-05  3.3581953539443432e-05  2.8244656624197248e-05  2.0607405934373265e-05  1.0034787251544833e-05  -4.3026552200146029e-06  -2.3204836886242275e-05  -4.7679198426039070e-05  -7.8462480506963410e-05  -1.1626247646558803e-04  -1.6148307397858698e-04  -2.1415231934285357e-04  -2.7432172928912503e-04  -3.4208080609789002e-04  -4.1759855420558820e-04  -5.0032562485171099e-04  -5.8846321047555431e-04  -6.7886202052802147e-04  -7.6736781602867142e-04  -8.4933828182836809e-04  -9.2025949556692169e-04  -9.7621134279628880e-04  -1.0141852729356555e-03  -1.0321962001157922e-03  -1.0292430159577603e-03  -1.0051668847692245e-03  -9.6044062199892905e-04  -8.9598407949429066e-04  -8.1293260062121058e-04  -7.1257739318513022e-04  -5.9590727726385555e-04  -4.6452217403780569e-04  -3.1727335848936322e-04  -1.5377309955765680e-04  1.6311351590494573e-05  1.9184931363691972e-04  3.7453745191477078e-04  5.5961900944322303e-04  7.4460088480880022e-04  9.2578811669794523e-04  1.0990779545862047e-03  1.2600288741401104e-03  1.4038243273176492e-03  1.5255558102794079e-03  1.6204463400546227e-03  1.6841370792026740e-03  1.7130530846799226e-03  1.7047146614880984e-03  1.6580901830520859e-03  1.5738104085325385e-03  1.4543789872279039e-03  1.3040661068987691e-03  1.1289160053125924e-03  9.3603848904075671e-04  7.3355923777008872e-04  5.2920941155936080e-04  3.3047623221146513e-04  1.4299702642656879e-04  -2.9068124950912664e-05  -1.8582240126491193e-04  -3.2495914342811204e-04  -4.4412660268779923e-04  -5.4421169613817809e-04  -6.3170894831639647e-04  -7.1065872070140282e-04  -7.7377144664126545e-04  -8.1562681091039012e-04  -8.3125452443620282e-04  -8.1465462189412533e-04  -7.6408313624951442e-04  -6.8358499555708121e-04  -5.8282637985679071e-04  -4.7428954649389552e-04  -3.6937273931446558e-04  -2.7589097393968421e-04  -1.9782498441602635e-04  -1.3608923895783550e-04  -8.9601208798164764e-05  -5.6064247370738386e-05  -3.2817399313896484e-05  -1.7405525224614641e-05  -7.6701842116032868e-06  -1.7721265668425102e-06  1.7772894606162694e-06  4.1389211891542743e-06  6.1493401237411179e-06  8.3354466593523579e-06  1.0937975042242249e-05  1.3945107641909954e-05  1.7132250066110771e-05  2.0103590821683431e-05  2.2345497461926179e-05  2.3273731996784732e-05  2.2306382345226036e-05  1.8900723522569167e-05  1.2788138215627154e-05  4.4872642473372570e-06  -8.3820792255047731e-07  2.0328494531515024e-06  3.2767679760432614e-05  2.8139512862794601e-05  -1.9043412374801447e-07  -4.0305222858611524e-05  -8.5279920237326087e-05  -1.2952658624922213e-04  -1.6838262826000483e-04  -1.9815078566102692e-04  -2.1647095085728025e-04  -2.2259977055476941e-04  -2.1742448555463217e-04  -2.0318766893784865e-04  -1.8299827933076604e-04  -1.6026766201955841e-04  -1.3819397732103201e-04  -1.1938933384133224e-04  -1.0568321498696739e-04  -9.8085247829777445e-05  -9.6854968080837761e-05  -1.0162664647756979e-04  -1.1154677213667059e-04  -1.2539303474813653e-04  -1.4167587599607997e-04  -1.5875538679518936e-04  -1.7498332757332418e-04  -1.8884584946939959e-04  -1.9910230211361789e-04  -2.0491170575041940e-04  -2.0585040637398564e-04  -2.0166089487113657e-04  -1.9179540612074947e-04  -1.7510712648727327e-04  -1.4970606913015981e-04  -1.1286942000791818e-04  -6.1179401821468790e-05  9.2269038202972023e-06  1.0237035608471159e-04  2.2251439498150894e-04  3.7378600842838996e-04  5.5993433415434731e-04  7.8382480917338761e-04  1.0468367084294739e-03  1.3475825278284666e-03  1.6854057166831801e-03  2.0589070776434550e-03  2.4627944857327517e-03  2.8881309332595842e-03  3.3213900419378000e-03  3.7455453951758559e-03  4.1416563699763140e-03  4.4907920128133827e-03  4.7757574761841627e-03  4.9824048434884381e-03  5.1003360278986795e-03  5.1230117974404550e-03  5.0473774772862049e-03  4.8731710220826742e-03  4.6020916769951761e-03  4.2369575588119919e-03  3.7810998084018008e-03  3.2381744685799274e-03  2.6124051997433134e-03  1.9116667401057222e-03  1.1474487259365304e-03  3.1688938155709071e-04  -5.8594730972061164e-04  -1.5433832370046377e-03  -2.5356511343313229e-03  -3.5470056347289090e-03  -4.5558997164719811e-03  -5.5376666673838514e-03  -6.4640729161269637e-03  -7.3035515741563381e-03  -8.0229248242381576e-03  -8.5890624184092376e-03  -8.9714381902701573e-03  -9.1450416919098259e-03  -9.0932869511996285e-03  -8.8106425730864416e-03  -8.3042851076563333e-03  -7.5946943327879725e-03  -6.7145483849375713e-03  -5.7063413779965579e-03  -4.6185650309716062e-03  -3.5012736366441116e-03  -2.4014072557008341e-03  -1.3589937623276964e-03  -4.0166387178298171e-04  4.4540262618884206e-04  1.1827273692969487e-03  1.8309359924048474e-03  2.3978137160375630e-03  2.8844579530588727e-03  3.2996258958685339e-03  3.6527482565878256e-03  3.9308132038551671e-03  4.1065965883644549e-03  4.1523021231637458e-03  4.0447958367220574e-03  3.7782453013198740e-03  3.3731921519634333e-03  2.8744610870094617e-03  2.3391066510201094e-03  1.8204959806024975e-03  1.3572557224307777e-03  9.7041455836888407e-04  6.6493239045516573e-04  4.3524311043004264e-04  2.6996652030225761e-04  1.5595135207425174e-04  8.0802853584833299e-05  3.3713059233875428e-05  5.5473461417065845e-06  -1.1136624448902188e-05  -2.2140810459320445e-05  -3.1644182408670543e-05  -4.2266416221356621e-05  -5.5188360526582818e-05  -7.0320004799283330e-05  -8.6494104059005081e-05  -1.0168226670489205e-04  -1.1324609599060868e-04  -1.1819421562699274e-04  -1.1354173088403438e-04  -9.6341073283892739e-05  -6.5282207837274723e-05  -1.9833454606590743e-05  7.3967312652672576e-06  1.2551382395996823e-05  9.2503408369013970e-05  5.6026817901454567e-05  -5.5743900904556540e-05  -2.1076270910763491e-04  -3.8310639097541863e-04  -5.5138340214416423e-04  -6.9776177197068624e-04  -8.0865300479016533e-04  -8.7580890319752800e-04  -8.9699674724470020e-04  -8.7581636688046629e-04  -8.2061958187971127e-04  -7.4278915839766694e-04  -6.5478080062622243e-04  -5.6834083446729189e-04  -4.9317419494522867e-04  -4.3617869690413500e-04  -4.0120960967760671e-04  -3.8924360072914574e-04  -3.9876690041198103e-04  -4.2623073317677151e-04  -4.6650870777315240e-04  -5.1333596848010445e-04  -5.5972905502349945e-04  -5.9845294801507700e-04  -6.2260215030679076e-04  -6.2615811508249576e-04  -6.0419279715349310e-04  -5.5256214217456307e-04  -4.6722661357965822e-04  -3.4309453571049843e-04  -1.7247290869362933e-04  5.5848339691721466e-05  3.5619185067350246e-04  7.4493352290604608e-04  1.2392976051213377e-03  1.8562146482933031e-03  2.6106243276304221e-03  3.5132490229301196e-03  4.5706118605872616e-03  5.7840324616452651e-03  7.1449755402874220e-03  8.6316446265906326e-03  1.0205129691245297e-02  1.1812018060875987e-02  1.3387637156405691e-02  1.4860334455471566e-02  1.6159616525770287e-02  1.7223050827585455e-02  1.8001728107710210e-02  1.8463128655064113e-02  1.8591448028003110e-02  1.8385907570506069e-02  1.7857786075521784e-02  1.7026907952377653e-02  1.5918185306762683e-02  1.4558621799502033e-02  1.2975004918177427e-02  1.1192404983970061e-02  9.2334432013148667e-03  7.1182029297710689e-03  4.8650778967073574e-03  2.4902034971230258e-03  6.8089320520164688e-06  -2.5645353288269068e-03  -5.2033129639921030e-03  -7.8953369490249413e-03  -1.0615197583876875e-02  -1.3328673149797328e-02  -1.5994539345995842e-02  -1.8562148788123817e-02  -2.0972484790512065e-02  -2.3158836360564952e-02  -2.5049322991444602e-02  -2.6570829859320980e-02  -2.7654147756950596e-02  -2.8240214865358760e-02  -2.8286597876148251e-02  -2.7773326703583925e-02  -2.6707087189858068e-02  -2.5122777898371567e-02  -2.3082049596850684e-02  -2.0668558064794933e-02  -1.7980967476386965e-02  -1.5123933783861804e-02  -1.2199647037373227e-02  -9.2977168317511516e-03  -6.4928697355300762e-03  -3.8294413902654205e-03  -1.3317033464861291e-03  9.9097187473438670e-04  3.1531481688302182e-03  5.1813877113514708e-03  7.0934038869676355e-03  8.8890152089242981e-03  1.0548411683251321e-02  1.2005276833175444e-02  1.3143793605040765e-02  1.3824522064403193e-02  1.3920216031184877e-02  1.3366319387171846e-02  1.2203164569038534e-02  1.0582277565064522e-02  8.7267069338736042e-03  6.8643608986790807e-03  5.1701781751834200e-03  3.7427344537831458e-03  2.6109814748130678e-03  1.7569423420597382e-03  1.1390743986628908e-03  7.0867527428693786e-04  4.1875787478217195e-04  2.2798326415913596e-04  1.0194841237421593e-04  1.3598005865146872e-05  -5.6840931845752828e-05  -1.2225442198858939e-04  -1.8930285497052509e-04  -2.5925119246507150e-04  -3.2889625347493848e-04  -3.9155978682329655e-04  -4.3817426838918067e-04  -4.5844789404711164e-04  -4.4226600319510100e-04  -3.8110113694292354e-04  -2.7208006557289375e-04  -1.2304163115228379e-04  8.5019251689495736e-06  2.2267677319895620e-05  1.2520273307460689e-04  2.2837638125733496e-05  -2.1280120433094668e-04  -5.2664711007849275e-04  -8.6984961584467356e-04  -1.2004436493945696e-03  -1.4835294290879819e-03  -1.6933509031368988e-03  -1.8151918077636228e-03  -1.8462252651253123e-03  -1.7947131229424046e-03  -1.6776354336285853e-03  -1.5173085828137792e-03  -1.3377239767652213e-03  -1.1612655089957970e-03  -1.0062695564894528e-03  -8.8559642071180122e-04  -8.0615587046664518e-04  -7.6913507242241388e-04  -7.7065897108247118e-04  -8.0263887577291463e-04  -8.5360929613659882e-04  -9.0951489463345114e-04  -9.5457906941740357e-04  -9.7227710231847218e-04  -9.4623037220116274e-04  -8.6095026655790290e-04  -7.0233111248615119e-04  -4.5711584124119288e-04  -1.1079743448133237e-04  3.5491748381958406e-04  9.6385086706220950e-04  1.7461691898950184e-03  2.7373950624542190e-03  3.9744658141618490e-03  5.4900634059144200e-03  7.3097182813404273e-03  9.4487163828773247e-03  1.1906069909842614e-02  1.4654884422000214e-02  1.7635963619454107e-02  2.0755379737058720e-02  2.3887515901692601e-02  2.6888075803113240e-02  2.9609795081030035e-02  3.1919594253420190e-02  3.3712641388387365e-02  3.4919672899480579e-02  3.5508850608868346e-02  3.5482267759066370e-02  3.4869279818433109e-02  3.3718360400931742e-02  3.2089005684728077e-02  3.0044697527221442e-02  2.7647421744090579e-02  2.4953868582934836e-02  2.2013176336480235e-02  1.8865956942942866e-02  1.5544291165701699e-02  1.2072450784157493e-02  8.4681912597339079e-03  4.7440614272431479e-03  9.1044792058437673e-04  -3.0229145667111440e-03  -7.0553810364358928e-03  -1.1179627661325854e-02  -1.5370641648072683e-02  -1.9599967027900039e-02  -2.3828376538856916e-02  -2.8003312323273643e-02  -3.2058087101501008e-02  -3.5910589194636300e-02  -3.9464671187994266e-02  -4.2612767322080539e-02  -4.5241212392084090e-02  -4.7237891124287522e-02  -4.8501968406756565e-02  -4.8954792245192655e-02  -4.8550404923036576e-02  -4.7283808595118458e-02  -4.5195145161507758e-02  -4.2368466662802105e-02  -3.8924825639645368e-02  -3.5010581119419799e-02  -3.0783024313147236e-02  -2.6394633093738497e-02  -2.1981325989528490e-02  -1.7648517213660581e-02  -1.3473835347864440e-02  -9.4921973799268269e-03  -5.6962526924104464e-03  -2.0551441966403477e-03  1.4806494246745649e-03  4.9708221958467708e-03  8.4623392099706426e-03  1.1953412623736082e-02  1.5381511131012587e-02  1.8596780931801844e-02  2.1345504297945107e-02  2.3305381429656227e-02  2.4162054514531423e-02  2.3720129267932093e-02  2.2004062227398126e-02  1.9286321495226039e-02  1.6010398505191568e-02  1.2646264090634008e-02  9.5593744142263605e-03  6.9548301498395431e-03  4.8935550078163647e-03  3.3418568465518744e-03  2.2195111915182674e-03  1.4326865407377290e-03  8.9159908788901516e-04  5.1865254585803475e-04  2.5155526556506477e-04  4.3944217454293177e-05  -1.3536926179624583e-04  -3.0395227154041745e-04  -4.6772310528586756e-04  -6.2309460019785716e-04  -7.5920559876769427e-04  -8.6025617018467440e-04  -9.0800787161181393e-04  -8.8462606234049595e-04  -7.7598764795456892e-04  -5.7737510814011273e-04  -3.0054464776571664e-04  2.9238558427095686e-06  3.0442986260179805e-05  1.1108175083541576e-04  -9.6563246144739360e-05  -4.9551594088544473e-04  -1.0047807790400443e-03  -1.5495531989540288e-03  -2.0640829826915827e-03  -2.4942001253842063e-03  -2.8013077866335277e-03  -2.9652689475232869e-03  -2.9850914540958066e-03  -2.8768665503408485e-03  -2.6694421512773788e-03  -2.3988057276617763e-03  -2.1023488556187672e-03  -1.8139720815099555e-03  -1.5605892180066692e-03  -1.3601809758940580e-03  -1.2211984947740045e-03  -1.1429838941412473e-03  -1.1167611245138994e-03  -1.1268197206264353e-03  -1.1517664463066152e-03  -1.1657816337864732e-03  -1.1397573979253649e-03  -1.0425251504328921e-03  -8.4242646992056900e-04  -5.0842396303670434e-04  -9.7966239571918605e-06  6.8523519923740692e-04  1.6119724177793254e-03  2.8130018746055450e-03  4.3402097389753196e-03  6.2511290543208970e-03  8.6018716119282083e-03  1.1439334873490269e-02  1.4790971327915747e-02  1.8651247108965895e-02  2.2968620789632018e-02  2.7634084226075217e-02  3.2479764214217763e-02  3.7290993289925113e-02  4.1831235022615515e-02  4.5873308458998500e-02  4.9226665235674816e-02  5.1756707330918444e-02  5.3392065265975515e-02  5.4121131131553916e-02  5.3981548010787687e-02  5.3045817699693902e-02  5.1406720838377204e-02  4.9164559910182502e-02  4.6417445978589461e-02  4.3254790844277302e-02  3.9753650119371167e-02  3.5977273322175728e-02  3.1975177437750808e-02  2.7784168241212052e-02  2.3429881814489538e-02  1.8928593811245131e-02  1.4289133890012183e-02  9.5147915220178021e-03  4.6055274866329734e-03  -4.4170537939686557e-04  -5.6312375017158970e-03  -1.0955559557966793e-02  -1.6403847263917852e-02  -2.1966778026643374e-02  -2.7619000554644935e-02  -3.3321681256891750e-02  -3.9018502972989581e-02  -4.4632495089631033e-02  -5.0064530018681552e-02  -5.5192303809925687e-02  -5.9872470052069943e-02  -6.3945537703928176e-02  -6.7244749023802786e-02  -6.9608837103961346e-02  -7.0897995797055455e-02  -7.1011368715456602e-02  -6.9903298990499976e-02  -6.7595023767856560e-02  -6.4178678978865339e-02  -5.9811660592246352e-02  -5.4701422803485271e-02  -4.9082991009581689e-02  -4.3193463579136060e-02  -3.7247129243961313e-02  -3.1417842347760135e-02  -2.5821052696291615e-02  -2.0519898288376481e-02  -1.5523230463399004e-02  -1.0784304338103297e-02  -6.2176962482232258e-03  -1.7023864273068194e-03  2.8918601670767040e-03  7.6701922736794595e-03  1.2664349631313411e-02  1.7792133631995687e-02  2.2820555532874771e-02  2.7340267944641991e-02  3.0810020566501672e-02  3.2682002483259261e-02  3.2591736087924532e-02  3.0532609748491906e-02  2.6905868370617210e-02  2.2391099619580201e-02  1.7707594108468772e-02  1.3406436289134453e-02  9.7884856167433070e-03  6.9364750767702240e-03  4.7947552391414631e-03  3.2422602346201825e-03  2.1407560575964521e-03  1.3610626058797981e-03  7.9510449974394906e-04  3.6009246555847839e-04  -1.5398611743958080e-06  -3.2442382261555771e-04  -6.2357045852098468e-04  -8.9805818383596205e-04  -1.1348097538500901e-03  -1.3124394310535235e-03  -1.4052654611673636e-03  -1.3876743673816375e-03  -1.2389565670329625e-03  -9.4944882314091218e-04  -5.2645641745270404e-04  -5.0338077463716746e-06  3.7710447589317141e-05  4.1795459016199462e-05  -3.1916024663508917e-04  -9.2479661267348527e-04  -1.6656746680395070e-03  -2.4374375441135196e-03  -3.1473473094702845e-03  -3.7202716621671517e-03  -4.1052750734881108e-03  -4.2795521048455253e-03  -4.2483490106432886e-03  -4.0406917833504070e-03  -3.7020030640950857e-03  -3.2854043207081259e-03  -2.8434596128783579e-03  -2.4216115660317958e-03  -2.0538540837987053e-03  -1.7605841182053421e-03  -1.5482423978847018e-03  -1.4100964314112088e-03  -1.3276761919403472e-03  -1.2724867108383031e-03  -1.2075602598913596e-03  -1.0888650460761208e-03  -8.6706193498438313e-04  -4.8928335916094347e-04  9.9589783170776587e-05  9.5575007785582043e-04  2.1364725276585908e-03  3.7030582111740539e-03  5.7242141250457915e-03  8.2757756101287678e-03  1.1436373923718931e-02  1.5276601877780313e-02  1.9840480370088204e-02  2.5123636279415277e-02  3.1050908384301051e-02  3.7460403701606318e-02  4.4103656239462781e-02  5.0669063818933643e-02  5.6823053965610500e-02  6.2257533554943380e-02  6.6729630201509668e-02  7.0084340113664365e-02  7.2258826876063040e-02  7.3270865552431619e-02  7.3198303069188897e-02  7.2155951256677509e-02  7.0274641466067503e-02  6.7685349294786673e-02  6.4508924488325597e-02  6.0850825377938879e-02  5.6799470741200113e-02  5.2426833896262202e-02  4.7790111225335490e-02  4.2933701597279154e-02  3.7891076353615452e-02  3.2686382282416666e-02  2.7335777417133018e-02  2.1848556674725305e-02  1.6228166687822815e-02  1.0473229888749091e-02  4.5783249948553196e-03  -1.4634881344036254e-03  -7.6583906379523847e-03  -1.4018463246742500e-02  -2.0551622711638663e-02  -2.7252139679791461e-02  -3.4107164633783327e-02  -4.1088334908727465e-02  -4.8148523189610118e-02  -5.5217217490410628e-02  -6.2195995442098154e-02  -6.8955584588950500e-02  -7.5334340617379744e-02  -8.1140294533535245e-02  -8.6157530297465770e-02  -9.0158229374490931e-02  -9.2920699622819014e-02  -9.4252574045443516e-02  -9.4016745823157277e-02  -9.2155884230496962e-02  -8.8710277934367990e-02  -8.3823888470575925e-02  -7.7735311785215949e-02  -7.0753685339935687e-02  -6.3223179921916187e-02  -5.5483242219010194e-02  -4.7830809941286773e-02  -4.0494458020843900e-02  -3.3613837957841175e-02  -2.7238470413253939e-02  -2.1335848028182947e-02  -1.5797930266036264e-02  -1.0479449796630482e-02  -5.1966558397686076e-03  2.5959089922968412e-04  6.0648939832396859e-03  1.2295829680163664e-02  1.8865219003331012e-02  2.5464556639139321e-02  3.1530798108594105e-02  3.6307077395825962e-02  3.9026085756781327e-02  3.9187215789323264e-02  3.6796129186779221e-02  3.2410059944584214e-02  2.6931990833895057e-02  2.1279882219801573e-02  1.6127454988227811e-02  1.1822167926236199e-02  8.4426782812361857e-03  5.9041474452152052e-03  4.0489379200488260e-03  2.7049081971169818e-03  1.7168016088503716e-03  9.6003186548189142e-04  3.4439520090766973e-04  -1.8757582470042795e-04  -6.6480019210464838e-04  -1.0927862594546488e-03  -1.4590072063113539e-03  -1.7383078297944475e-03  -1.8984185299447268e-03  -1.9057090987941289e-03  -1.7311679534924020e-03  -1.3565461936482471e-03  -7.7896975380053535e-04  -1.4124731275939138e-05  4.5025791004034195e-05  -8.7560109538439769e-05  -6.5949687400667582e-04  -1.5233734637717408e-03  -2.5364445991004577e-03  -3.5594553844598316e-03  -4.4685373116433490e-03  -5.1660689173028216e-03  -5.5906808499192754e-03  -5.7219965096370210e-03  -5.5787003075689493e-03  -5.2103702849627129e-03  -4.6854494474208976e-03  -4.0783701354052604e-03  -3.4583451512966131e-03  -2.8812317086171651e-03  -2.3847858896047913e-03  -1.9868471352414594e-03  -1.6855743489666126e-03  -1.4610402920520282e-03  -1.2773468855953427e-03  -1.0847037847143237e-03  -8.2161816204148253e-04  -4.1695978882739436e-04  2.0845224053799515e-04  1.1396645671436544e-03  2.4652127564147638e-03  4.2766139537771487e-03  6.6689346635258146e-03  9.7408733685814351e-03  1.3593371591482542e-02  1.8320026369111078e-02  2.3985928245017323e-02  3.0597282221102026e-02  3.8067073643588245e-02  4.6189756679614107e-02  5.4641346451292393e-02  6.3012359607273624e-02 