<?xml version="1.0"?>
<VTKFile type="UnstructuredGrid"  version="0.1"  >
<UnstructuredGrid>
<Piece  NumberOfPoints="16641" NumberOfCells="16384">
<Points>
<DataArray  type="Float64"  NumberOfComponents="3"  format="ascii">0 0 0  0.0078125 0 0  0.015625 0 0  0.0234375 0 0  0.03125 0 0  0.0390625 0 0  0.046875 0 0  0.0546875 0 0  0.0625 0 0  0.0703125 0 0  0.078125 0 0  0.0859375 0 0  0.09375 0 0  0.1015625 0 0  0.109375 0 0  0.1171875 0 0  0.125 0 0  0.1328125 0 0  0.140625 0 0  0.1484375 0 0  0.15625 0 0  0.1640625 0 0  0.171875 0 0  0.1796875 0 0  0.1875 0 0  0.1953125 0 0  0.203125 0 0  0.2109375 0 0  0.21875 0 0  0.2265625 0 0  0.234375 0 0  0.2421875 0 0  0.25 0 0  0.2578125 0 0  0.265625 0 0  0.2734375 0 0  0.28125 0 0  0.2890625 0 0  0.296875 0 0  0.3046875 0 0  0.3125 0 0  0.3203125 0 0  0.328125 0 0  0.3359375 0 0  0.34375 0 0  0.3515625 0 0  0.359375 0 0  0.3671875 0 0  0.375 0 0  0.3828125 0 0  0.390625 0 0  0.3984375 0 0  0.40625 0 0  0.4140625 0 0  0.421875 0 0  0.4296875 0 0  0.4375 0 0  0.4453125 0 0  0.453125 0 0  0.4609375 0 0  0.46875 0 0  0.4765625 0 0  0.484375 0 0  0.4921875 0 0  0.5 0 0  0.5078125 0 0  0.515625 0 0  0.5234375 0 0  0.53125 0 0  0.5390625 0 0  0.546875 0 0  0.5546875 0 0  0.5625 0 0  0.5703125 0 0  0.578125 0 0  0.5859375 0 0  0.59375 0 0  0.6015625 0 0  0.609375 0 0  0.6171875 0 0  0.625 0 0  0.6328125 0 0  0.640625 0 0  0.6484375 0 0  0.65625 0 0  0.6640625 0 0  0.671875 0 0  0.6796875 0 0  0.6875 0 0  0.6953125 0 0  0.703125 0 0  0.7109375 0 0  0.71875 0 0  0.7265625 0 0  0.734375 0 0  0.7421875 0 0  0.75 0 0  0.7578125 0 0  0.765625 0 0  0.7734375 0 0  0.78125 0 0  0.7890625 0 0  0.796875 0 0  0.8046875 0 0  0.8125 0 0  0.8203125 0 0  0.828125 0 0  0.8359375 0 0  0.84375 0 0  0.8515625 0 0  0.859375 0 0  0.8671875 0 0  0.875 0 0  0.8828125 0 0  0.890625 0 0  0.8984375 0 0  0.90625 0 0  0.9140625 0 0  0.921875 0 0  0.9296875 0 0  0.9375 0 0  0.9453125 0 0  0.953125 0 0  0.9609375 0 0  0.96875 0 0  0.9765625 0 0  0.984375 0 0  0.9921875 0 0  1 0 0  0 0.0078125 0  0.0078125 0.0078125 0  0.015625 0.0078125 0  0.0234375 0.0078125 0  0.03125 0.0078125 0  0.0390625 0.0078125 0  0.046875 0.0078125 0  0.0546875 0.0078125 0  0.0625 0.0078125 0  0.0703125 0.0078125 0  0.078125 0.0078125 0  0.0859375 0.0078125 0  0.09375 0.0078125 0  0.1015625 0.0078125 0  0.109375 0.0078125 0  0.1171875 0.0078125 0  0.125 0.0078125 0  0.1328125 0.0078125 0  0.140625 0.0078125 0  0.1484375 0.0078125 0  0.15625 0.0078125 0  0.1640625 0.0078125 0  0.171875 0.0078125 0  0.1796875 0.0078125 0  0.1875 0.0078125 0  0.1953125 0.0078125 0  0.203125 0.0078125 0  0.2109375 0.0078125 0  0.21875 0.0078125 0  0.2265625 0.0078125 0  0.234375 0.0078125 0  0.2421875 0.0078125 0  0.25 0.0078125 0  0.2578125 0.0078125 0  0.265625 0.0078125 0  0.2734375 0.0078125 0  0.28125 0.0078125 0  0.2890625 0.0078125 0  0.296875 0.0078125 0  0.3046875 0.0078125 0  0.3125 0.0078125 0  0.3203125 0.0078125 0  0.328125 0.0078125 0  0.3359375 0.0078125 0  0.34375 0.0078125 0  0.3515625 0.0078125 0  0.359375 0.0078125 0  0.3671875 0.0078125 0  0.375 0.0078125 0  0.3828125 0.0078125 0  0.390625 0.0078125 0  0.3984375 0.0078125 0  0.40625 0.0078125 0  0.4140625 0.0078125 0  0.421875 0.0078125 0  0.4296875 0.0078125 0  0.4375 0.0078125 0  0.4453125 0.0078125 0  0.453125 0.0078125 0  0.4609375 0.0078125 0  0.46875 0.0078125 0  0.4765625 0.0078125 0  0.484375 0.0078125 0  0.4921875 0.0078125 0  0.5 0.0078125 0  0.5078125 0.0078125 0  0.515625 0.0078125 0  0.5234375 0.0078125 0  0.53125 0.0078125 0  0.5390625 0.0078125 0  0.546875 0.0078125 0  0.5546875 0.0078125 0  0.5625 0.0078125 0  0.5703125 0.0078125 0  0.578125 0.0078125 0  0.5859375 0.0078125 0  0.59375 0.0078125 0  0.6015625 0.0078125 0  0.609375 0.0078125 0  0.6171875 0.0078125 0  0.625 0.0078125 0  0.6328125 0.0078125 0  0.640625 0.0078125 0  0.6484375 0.0078125 0  0.65625 0.0078125 0  0.6640625 0.0078125 0  0.671875 0.0078125 0  0.6796875 0.0078125 0  0.6875 0.0078125 0  0.6953125 0.0078125 0  0.703125 0.0078125 0  0.7109375 0.0078125 0  0.71875 0.0078125 0  0.7265625 0.0078125 0  0.734375 0.0078125 0  0.7421875 0.0078125 0  0.75 0.0078125 0  0.7578125 0.0078125 0  0.765625 0.0078125 0  0.7734375 0.0078125 0  0.78125 0.0078125 0  0.7890625 0.0078125 0  0.796875 0.0078125 0  0.8046875 0.0078125 0  0.8125 0.0078125 0  0.8203125 0.0078125 0  0.828125 0.0078125 0  0.8359375 0.0078125 0  0.84375 0.0078125 0  0.8515625 0.0078125 0  0.859375 0.0078125 0  0.8671875 0.0078125 0  0.875 0.0078125 0  0.8828125 0.0078125 0  0.890625 0.0078125 0  0.8984375 0.0078125 0  0.90625 0.0078125 0  0.9140625 0.0078125 0  0.921875 0.0078125 0  0.9296875 0.0078125 0  0.9375 0.0078125 0  0.9453125 0.0078125 0  0.953125 0.0078125 0  0.9609375 0.0078125 0  0.96875 0.0078125 0  0.9765625 0.0078125 0  0.984375 0.0078125 0  0.9921875 0.0078125 0  1 0.0078125 0  0 0.015625 0  0.0078125 0.015625 0  0.015625 0.015625 0  0.0234375 0.015625 0  0.03125 0.015625 0  0.0390625 0.015625 0  0.046875 0.015625 0  0.0546875 0.015625 0  0.0625 0.015625 0  0.0703125 0.015625 0  0.078125 0.015625 0  0.0859375 0.015625 0  0.09375 0.015625 0  0.1015625 0.015625 0  0.109375 0.015625 0  0.1171875 0.015625 0  0.125 0.015625 0  0.1328125 0.015625 0  0.140625 0.015625 0  0.1484375 0.015625 0  0.15625 0.015625 0  0.1640625 0.015625 0  0.171875 0.015625 0  0.1796875 0.015625 0  0.1875 0.015625 0  0.1953125 0.015625 0  0.203125 0.015625 0  0.2109375 0.015625 0  0.21875 0.015625 0  0.2265625 0.015625 0  0.234375 0.015625 0  0.2421875 0.015625 0  0.25 0.015625 0  0.2578125 0.015625 0  0.265625 0.015625 0  0.2734375 0.015625 0  0.28125 0.015625 0  0.2890625 0.015625 0  0.296875 0.015625 0  0.3046875 0.015625 0  0.3125 0.015625 0  0.3203125 0.015625 0  0.328125 0.015625 0  0.3359375 0.015625 0  0.34375 0.015625 0  0.3515625 0.015625 0  0.359375 0.015625 0  0.3671875 0.015625 0  0.375 0.015625 0  0.3828125 0.015625 0  0.390625 0.015625 0  0.3984375 0.015625 0  0.40625 0.015625 0  0.4140625 0.015625 0  0.421875 0.015625 0  0.4296875 0.015625 0  0.4375 0.015625 0  0.4453125 0.015625 0  0.453125 0.015625 0  0.4609375 0.015625 0  0.46875 0.015625 0  0.4765625 0.015625 0  0.484375 0.015625 0  0.4921875 0.015625 0  0.5 0.015625 0  0.5078125 0.015625 0  0.515625 0.015625 0  0.5234375 0.015625 0  0.53125 0.015625 0  0.5390625 0.015625 0  0.546875 0.015625 0  0.5546875 0.015625 0  0.5625 0.015625 0  0.5703125 0.015625 0  0.578125 0.015625 0  0.5859375 0.015625 0  0.59375 0.015625 0  0.6015625 0.015625 0  0.609375 0.015625 0  0.6171875 0.015625 0  0.625 0.015625 0  0.6328125 0.015625 0  0.640625 0.015625 0  0.6484375 0.015625 0  0.65625 0.015625 0  0.6640625 0.015625 0  0.671875 0.015625 0  0.6796875 0.015625 0  0.6875 0.015625 0  0.6953125 0.015625 0  0.703125 0.015625 0  0.7109375 0.015625 0  0.71875 0.015625 0  0.7265625 0.015625 0  0.734375 0.015625 0  0.7421875 0.015625 0  0.75 0.015625 0  0.7578125 0.015625 0  0.765625 0.015625 0  0.7734375 0.015625 0  0.78125 0.015625 0  0.7890625 0.015625 0  0.796875 0.015625 0  0.8046875 0.015625 0  0.8125 0.015625 0  0.8203125 0.015625 0  0.828125 0.015625 0  0.8359375 0.015625 0  0.84375 0.015625 0  0.8515625 0.015625 0  0.859375 0.015625 0  0.8671875 0.015625 0  0.875 0.015625 0  0.8828125 0.015625 0  0.890625 0.015625 0  0.8984375 0.015625 0  0.90625 0.015625 0  0.9140625 0.015625 0  0.921875 0.015625 0  0.9296875 0.015625 0  0.9375 0.015625 0  0.9453125 0.015625 0  0.953125 0.015625 0  0.9609375 0.015625 0  0.96875 0.015625 0  0.9765625 0.015625 0  0.984375 0.015625 0  0.9921875 0.015625 0  1 0.015625 0  0 0.0234375 0  0.0078125 0.0234375 0  0.015625 0.0234375 0  0.0234375 0.0234375 0  0.03125 0.0234375 0  0.0390625 0.0234375 0  0.046875 0.0234375 0  0.0546875 0.0234375 0  0.0625 0.0234375 0  0.0703125 0.0234375 0  0.078125 0.0234375 0  0.0859375 0.0234375 0  0.09375 0.0234375 0  0.1015625 0.0234375 0  0.109375 0.0234375 0  0.1171875 0.0234375 0  0.125 0.0234375 0  0.1328125 0.0234375 0  0.140625 0.0234375 0  0.1484375 0.0234375 0  0.15625 0.0234375 0  0.1640625 0.0234375 0  0.171875 0.0234375 0  0.1796875 0.0234375 0  0.1875 0.0234375 0  0.1953125 0.0234375 0  0.203125 0.0234375 0  0.2109375 0.0234375 0  0.21875 0.0234375 0  0.2265625 0.0234375 0  0.234375 0.0234375 0  0.2421875 0.0234375 0  0.25 0.0234375 0  0.2578125 0.0234375 0  0.265625 0.0234375 0  0.2734375 0.0234375 0  0.28125 0.0234375 0  0.2890625 0.0234375 0  0.296875 0.0234375 0  0.3046875 0.0234375 0  0.3125 0.0234375 0  0.3203125 0.0234375 0  0.328125 0.0234375 0  0.3359375 0.0234375 0  0.34375 0.0234375 0  0.3515625 0.0234375 0  0.359375 0.0234375 0  0.3671875 0.0234375 0  0.375 0.0234375 0  0.3828125 0.0234375 0  0.390625 0.0234375 0  0.3984375 0.0234375 0  0.40625 0.0234375 0  0.4140625 0.0234375 0  0.421875 0.0234375 0  0.4296875 0.0234375 0  0.4375 0.0234375 0  0.4453125 0.0234375 0  0.453125 0.0234375 0  0.4609375 0.0234375 0  0.46875 0.0234375 0  0.4765625 0.0234375 0  0.484375 0.0234375 0  0.4921875 0.0234375 0  0.5 0.0234375 0  0.5078125 0.0234375 0  0.515625 0.0234375 0  0.5234375 0.0234375 0  0.53125 0.0234375 0  0.5390625 0.0234375 0  0.546875 0.0234375 0  0.5546875 0.0234375 0  0.5625 0.0234375 0  0.5703125 0.0234375 0  0.578125 0.0234375 0  0.5859375 0.0234375 0  0.59375 0.0234375 0  0.6015625 0.0234375 0  0.609375 0.0234375 0  0.6171875 0.0234375 0  0.625 0.0234375 0  0.6328125 0.0234375 0  0.640625 0.0234375 0  0.6484375 0.0234375 0  0.65625 0.0234375 0  0.6640625 0.0234375 0  0.671875 0.0234375 0  0.6796875 0.0234375 0  0.6875 0.0234375 0  0.6953125 0.0234375 0  0.703125 0.0234375 0  0.7109375 0.0234375 0  0.71875 0.0234375 0  0.7265625 0.0234375 0  0.734375 0.0234375 0  0.7421875 0.0234375 0  0.75 0.0234375 0  0.7578125 0.0234375 0  0.765625 0.0234375 0  0.7734375 0.0234375 0  0.78125 0.0234375 0  0.7890625 0.0234375 0  0.796875 0.0234375 0  0.8046875 0.0234375 0  0.8125 0.0234375 0  0.8203125 0.0234375 0  0.828125 0.0234375 0  0.8359375 0.0234375 0  0.84375 0.0234375 0  0.8515625 0.0234375 0  0.859375 0.0234375 0  0.8671
[...]
<PointData  Scalars="u_sol"> 
<DataArray  type="Float64"  Name="u_sol"  format="ascii">-6.1473969688237023e-10  3.0750217614017183e-09  1.4011949464386366e-08  3.2011355246882918e-08  5.6894557153566480e-08  8.8477957814583826e-08  1.2657602283889104e-07  1.7100053939470619e-07  2.2156087451804789e-07  2.7806396857755549e-07  3.4031440279967072e-07  4.0811445009842059e-07  4.8126413361787154e-07  5.5956128650182485e-07  6.4280161471398021e-07  7.3077876249791719e-07  8.2328438067635454e-07  9.2010819778165097e-07  1.0210380941504735e-06  1.1258601789828134e-06  1.2343588704869424e-06  1.3463169791344692e-06  1.4615157941330193e-06  1.5797351731420814e-06  1.7007536353655630e-06  1.8243484580147107e-06  1.9502957762930739e-06  2.0783706869259748e-06  2.2083473553322932e-06  2.3399991265173817e-06  2.4730986397480533e-06  2.6074179471155948e-06  2.7427286360650997e-06  2.8788019559389444e-06  3.0154089486697259e-06  3.1523205836685293e-06  3.2893078970258135e-06  3.4261421351052931e-06  3.5625949025889203e-06  3.6984383151050128e-06  3.8334451565554600e-06  3.9673890411385473e-06  4.1000445802843533e-06  4.2311875544961891e-06  4.3605950903004036e-06  4.4880458422914328e-06  4.6133201804967707e-06  4.7362003830398883e-06  4.8564708343430237e-06  4.9739182288463456e-06  5.0883317804616140e-06  5.1995034377943403e-06  5.3072281053021243e-06  5.4113038704780866e-06  5.5115322371745231e-06  5.6077183652089818e-06  5.6996713163276412e-06  5.7872043067286927e-06  5.8701349661845735e-06  5.9482856039273629e-06  6.0214834814846803e-06  6.0895610924411432e-06  6.1523564494590610e-06  6.2097133785412634e-06  6.2614818207250397e-06  6.3075181413763797e-06  6.3476854471802974e-06  6.3818539109998433e-06  6.4099011047043858e-06  6.4317123402477792e-06  6.4471810189369830e-06  6.4562089892512965e-06  6.4587069132422587e-06  6.4545946416874066e-06  6.4438015982559438e-06  6.4262671727061507e-06  6.4019411233648398e-06  6.3707839890845334e-06  6.3327675107733164e-06  6.2878750626769334e-06  6.2361020937418765e-06  6.1774565789705841e-06  6.1119594812084514e-06  6.0396452233671684e-06  5.9605621714152488e-06  5.8747731282317804e-06  5.7823558384844342e-06  5.6834035048682296e-06  5.5780253158199891e-06  5.4663469848342383e-06  5.3485113017906425e-06  5.2246786962998377e-06  5.0950278133420297e-06  4.9597561015290443e-06  4.8190804140651763e-06  4.6732376226443124e-06  4.5224852445928771e-06  4.3671020834523869e-06  4.2073888831636986e-06  4.0436689961866976e-06  3.8762890658250483e-06  3.7056197227404160e-06  3.5320562963207463e-06  3.3560195408019436e-06  3.1779563765219536e-06  2.9983406466399148e-06  2.8176738894500021e-06  2.6364861266353259e-06  2.4553366677346013e-06  2.2748149310934115e-06  2.0955412814752802e-06  1.9181678848125279e-06  1.7433795802297149e-06  1.5718947696593748e-06  1.4044663253912456e-06  1.2418825158064572e-06  1.0849679496681043e-06  9.3458453912861290e-07  7.9163248211459493e-07  6.5705126337495528e-07  5.3182067823211475e-07  4.1696186535480509e-07  3.1353840164108717e-07  2.2265726161636232e-07  1.4547038294296602e-07  8.3174066691319719e-08  3.7016566196510188e-08  8.2752301600869293e-09  -1.6527693179877228e-09  -1.5500911948212450e-07  7.7537902308749125e-07  3.5331702958612735e-06  8.0717951283657857e-06  1.4346198414930937e-05  2.2310085140482285e-05  3.1916671976706522e-05  4.3118500194944366e-05  5.5867500839383535e-05  7.0114993068423270e-05  8.5811701181404709e-05  1.0290776743467186e-04  1.2135276680032263e-04  1.4109572203760315e-04  1.6208511953284395e-04  1.8426892580527513e-04  2.0759460472600654e-04  2.3200913545765831e-04  2.5745903113320314e-04  2.8389035828986926e-04  3.1124875707515064e-04  3.3947946224192617e-04  3.6852732495016959e-04  3.9833683539288356e-04  4.2885214626435557e-04  4.6001709708898243e-04  4.9177523942934317e-04  5.2406986299251192e-04  5.5684402265381895e-04  5.9004056641773293e-04  6.2360216433579628e-04  6.5747133840190759e-04  6.9159049344560063e-04  7.2590194904424796e-04  7.6034797247556891e-04  7.9487081273215473e-04  8.2941273562006526e-04  8.6391605996388959e-04  8.9832319494113140e-04  9.3257667856905106e-04  9.6661921736768933e-04  1.0003937272228130e-03  1.0338433754733659e-03  1.0669116242480810e-03  1.0995422750765421e-03  1.1316795148001103e-03  1.1632679628090087e-03  1.1942527196317663e-03  1.2245794169040982e-03  1.2541942687444268e-03  1.2830441245639166e-03  1.3110765233391530e-03  1.3382397493763082e-03  1.3644828895958371e-03  1.3897558923673503e-03  1.4140096279248427e-03  1.4371959503928220e-03  1.4592677614544964e-03  1.4801790756936155e-03  1.4998850876419693e-03  1.5183422405654176e-03  1.5355082970212976e-03  1.5513424112211746e-03  1.5658052032330287e-03  1.5788588350576166e-03  1.5904670886144219e-03  1.6005954456731609e-03  1.6092111697669992e-03  1.6162833901249112e-03  1.6217831876605589e-03  1.6256836830560310e-03  1.6279601269791795e-03  1.6285899924741254e-03  1.6275530695648288e-03  1.6248315621126947e-03  1.6204101869692008e-03  1.6142762754657904e-03  1.6064198772836233e-03  1.5968338667463903e-03  1.5855140515802666e-03  1.5724592841857481e-03  1.5576715754665087e-03  1.5411562112615602e-03  1.5229218714274051e-03  1.5029807516177562e-03  1.4813486878090163e-03  1.4580452836204241e-03  1.4330940404787844e-03  1.4065224906782737e-03  1.3783623333863894e-03  1.3486495736484429e-03  1.3174246644432296e-03  1.2847326518435147e-03  1.2506233233361926e-03  1.2151513593571400e-03  1.1783764880968425e-03  1.1403636436342422e-03  1.1011831274563687e-03  1.0609107734225760e-03  1.0196281162332015e-03  9.7742256346319075e-04  9.3438757122183097e-04  8.9062282350164522e-04  8.4623441527927924e-04  8.0133503943285295e-04  7.5604417754115657e-04  7.1048829463084414e-04  6.6480103793883135e-04  6.1912343975835578e-04  5.7360412443787344e-04  5.2839951960289937e-04  4.8367407167258271e-04  4.3960046574319228e-04  3.9635984991193921e-04  3.5414206411615450e-04  3.1314587356222340e-04  2.7357920682607778e-04  2.3565939868456818e-04  1.9961343782617282e-04  1.6567821926311780e-04  1.3410080248970848e-04  1.0513867187452498e-04  7.9060012787134733e-05  5.6143953473759623e-05  3.6680959629807883e-05  2.0972684404050643e-05  9.3338763778037740e-06  2.0866335473870008e-06  -4.1675252475855693e-07  -3.0210450706239449e-07  1.5111723584599905e-06  6.8859604907296480e-06  1.5731498293827562e-05  2.7959975775446271e-05  4.3481166417871311e-05  6.2203892006312470e-05  8.4035658006444272e-05  1.0888278058390126e-04  1.3665038337182058e-04  1.6724243065500602e-04  2.0056175234776631e-04  2.3651007275786397e-04  2.7498803995985459e-04  3.1589525666628389e-04  3.5913031239657956e-04  4.0459081703592180e-04  4.5217343579864245e-04  5.0177392563223423e-04  5.5328717309302230e-04  6.0660723372655601e-04  6.6162737298599672e-04  7.1824010872245008e-04  7.7633725528173888e-04  8.3580996924272814e-04  8.9654879683292717e-04  9.5844372305769283e-04  1.0213842225799937e-03  1.0852593123882824e-03  1.1499576062907826e-03  1.2153673712749790e-03  1.2813765857719438e-03  1.3478729998656260e-03  1.4147441974880822e-03  1.4818776606421546e-03  1.5491608356939543e-03  1.6164812017781232e-03  1.6837263413595814e-03  1.7507840129962345e-03  1.8175422263478418e-03  1.8838893194770066e-03  1.9497140384889837e-03  2.0149056195578273e-03  2.0793538733871780e-03  2.1429492721547348e-03  2.2055830389903584e-03  2.2671472400384858e-03  2.3275348791564686e-03  2.3866399953011781e-03  2.4443577626572194e-03  2.5005845935608105e-03  2.5552182442744398e-03  2.6081579236681778e-03  2.6593044048644856e-03  2.7085601399042866e-03  2.7558293774930082e-03  2.8010182838862016e-03  2.8440350669754933e-03  2.8847901036362089e-03  2.9231960703995689e-03  2.9591680775127938e-03  2.9926238064518908e-03  3.0234836509527253e-03  3.0516708616270824e-03  3.0771116942315026e-03  3.0997355616577803e-03  3.1194751897150094e-03  3.1362667767742929e-03  3.1500501573483251e-03  3.1607689696791586e-03  3.1683708274086470e-03  3.1728074954073273e-03  3.1740350698384579e-03  3.1720141625355292e-03  3.1667100897723268e-03  3.1580930655062752e-03  3.1461383991768276e-03  3.1308266981419797e-03  3.1121440748373952e-03  3.0900823587437774e-03  3.0646393132496199e-03  3.0358188574977174e-03  3.0036312933052287e-03  2.9680935372484512e-03  2.9292293580049952e-03  2.8870696190472669e-03  2.8416525267827876e-03  2.7930238842382988e-03  2.7412373503861403e-03  2.6863547052127746e-03  2.6284461206310325e-03  2.5675904373390138e-03  2.5038754477304296e-03  2.4373981849624376e-03  2.3682652182889711e-03  2.2965929547689341e-03  2.2225079474604212e-03  2.1461472102139380e-03  2.0676585391789697e-03  1.9872008411403988e-03  1.9049444688026794e-03  1.8210715631416673e-03  1.7357764029457114e-03  1.6492657616696180e-03  1.5617592717266286e-03  1.4734897963458106e-03  1.3847038091238961e-03  1.2956617814026941e-03  1.2066385776051175e-03  1.1179238586648409e-03  1.0298224936866644e-03  9.4265497997656584e-04  8.5675787158285611e-04  7.7248421649134887e-04  6.9020400262070967e-04  6.1030461276291635e-04  5.3319128862834857e-04  4.5928760411122747e-04  3.8903594806453880e-04  3.2289801623771577e-04  2.6135531441368428e-04  2.0490966589894571e-04  1.5408374968092556e-04  1.0942157182851864e-04  7.1489234495579089e-05  4.0874643588767032e-05  1.8191227279995912e-05  4.0667374999142934e-06  -8.1222844381014348e-07  -4.4202236763782856e-07  2.2110626199623581e-06  1.0075151122279303e-05  2.3017445877303906e-05  4.0909468233913797e-05  6.3619203813837025e-05  9.1013245766049538e-05  1.2295626127398505e-04  1.5931117740364918e-04  1.9993917637445687e-04  2.4469974411253680e-04  2.9345070679694888e-04  3.4604827294549135e-04  4.0234707639213009e-04  4.6220022145597141e-04  5.2545933000898936e-04  5.9197459057745553e-04  6.6159480949841019e-04  7.3416746418396132e-04  8.0953875853882122e-04  8.8755368057947810e-04  9.6805606230368122e-04  1.0508886418598932e-03  1.1358931280672007e-03  1.2229102673370683e-03  1.3117799130491744e-03  1.4023410974344976e-03  1.4944321060197088e-03  1.5878905546878675e-03  1.6825534694113627e-03  1.7782573687139861e-03  1.8748383489199738e-03  1.9721321722489067e-03  2.0699743578162068e-03  2.1682002756002183e-03  2.2666452434375981e-03  2.3651446271100718e-03  2.4635339435864117e-03  2.5616489674847240e-03  2.6593258408212587e-03  2.7564011861128290e-03  2.8527122229013288e-03  2.9480968877698102e-03  3.0423939579207137e-03  3.1354431783882069e-03  3.2270853929574528e-03  3.3171626788652511e-03  3.4055184853572598e-03  3.4919977761786632e-03  3.5764471760761458e-03  3.6587151213903551e-03  3.7386520148194203e-03  3.8161103844354021e-03  3.8909450470366504e-03  3.9630132759208474e-03  4.0321749731643333e-03  4.0982928464952714e-03  4.1612325908491014e-03  4.2208630746966222e-03  4.2770565312360564e-03  4.3296887545423851e-03  4.3786393007682837e-03  4.4237916944929135e-03  4.4650336403159871e-03  4.5022572397964622e-03  4.5353592138364322e-03  4.5642411306127421e-03  4.5888096391601459e-03  4.6089767087117645e-03  4.6246598739040808e-03  4.6357824859555559e-03  4.6422739699294915e-03  4.6440700881937363e-03  4.6411132101914073e-03  4.6333525886387205e-03  4.6207446422678010e-03  4.6032532452341627e-03  4.5808500233105003e-03  4.5535146569902641e-03  4.5212351916264970e-03  4.4840083547331927e-03  4.4418398805787171e-03  4.3947448422024873e-03  4.3427479909885118e-03  4.2858841039310289e-03  4.2241983387301223e-03  4.1577465968566677e-03  4.0865958947287929e-03  4.0108247431436487e-03  3.9305235351108515e-03  3.8457949422360986e-03  3.7567543198056600e-03  3.6635301207248875e-03  3.5662643184661319e-03  3.4651128391838971e-03  3.3602460031573640e-03  3.2518489757229641e-03  3.1401222278620825e-03  3.0252820066115566e-03  2.9075608154670108e-03  2.7872079049519184e-03  2.6644897735275809e-03  2.5396906790220494e-03  2.4131131607587823e-03  2.2850785725682596e-03  2.1559276268687672e-03  2.0260209500054045e-03  1.8957396490388912e-03  1.7654858901790527e-03  1.6356834890604028e-03  1.5067785130604445e-03  1.3792398958640487e-03  1.2535600644807722e-03  1.1302555789242232e-03  1.0098677847674036e-03  8.9296347878605072e-04  7.8013558792327956e-04  6.7200386174504892e-04  5.6921557880928357e-04  4.7244626644152906e-04  3.8240043689682902e-04  2.9981232989083052e-04  2.2544670000144390e-04  1.6009950639526977e-04  1.0459903799240319e-04  5.9805485734527579e-05  2.6616383330350905e-05  5.9502221710676020e-06  -1.1884070948270771e-06  -5.7487696653771830e-07  2.8756213796835465e-06  1.3103346667008669e-05  2.9935587992800524e-05  5.3205251063931001e-05  8.2740643155652404e-05  1.1836826054566201e-04  1.5991209467512677e-04  2.0719387385616489e-04  2.6003305712162672e-04  3.1824689737182881e-04  3.8165048890522694e-04  4.5005682215363478e-04  5.2327683957699520e-04  6.0111949440838988e-04  6.8339181186847359e-04  7.6989895302486614e-04  8.6044428132423271e-04  9.5482943186575000e-04  1.0528543834749577e-03  1.1543175336409884e-03  1.2590157763804537e-03  1.3667445830925870e-03  1.4772980864713051e-03  1.5904691675410001e-03  1.7060495458840305e-03  1.8238298731290119e-03  1.9435998297702831e-03  2.0651482253900124e-03  2.1882631023557135e-03  2.3127318430671809e-03  2.4383412808280588e-03  2.5648778144185375e-03  2.6921275264471366e-03  2.8198763055604617e-03  2.9479099725917240e-03  3.0760144107295551e-03  3.2039756997904955e-03  3.3315802546796968e-03  3.4586149681258564e-03  3.5848673577778406e-03  3.7101257177518708e-03  3.8341792747197362e-03  3.9568183486298090e-03  4.0778345181543638e-03  4.1970207909581688e-03  4.3141717788847097e-03  4.4290838781584057e-03  4.5415554547023566e-03  4.6513870346730300e-03  4.7583815003149517e-03  4.8623442912401390e-03  4.9630836112385269e-03  5.0604106407278306e-03  5.1541397549523752e-03  5.2440887480430650e-03  5.3300790630515247e-03  5.4119360280741055e-03  5.4894890985828218e-03  5.5625721060823417e-03  5.6310235132140084e-03  5.6946866754300374e-03  5.7534101093625169e-03  5.8070477680144594e-03  5.8554593229017040e-03  5.8985104532767313e-03  5.9360731425675281e-03  5.9680259821667013e-03  5.9942544827082996e-03  6.0146513929718246e-03  6.0291170265552195e-03  6.0375595964609636e-03  6.0398955577413115e-03  6.0360499583516211e-03  6.0259567983623552e-03  6.0095593976832954e-03  5.9868107724556042e-03  5.9576740202698453e-03  5.9221227143705967e-03  5.8801413070108943e-03  5.8317255421219570e-03  5.7768828774666468e-03  5.7156329164474310e-03  5.6480078497423277e-03  5.5740529069451678e-03  5.4938268183888387e-03  5.4074022873336130e-03  5.3148664727045046e-03  5.2163214825655365e-03  5.1118848785206873e-03  5.0016901912349251e-03  4.8858874472712862e-03  4.7646437074430866e-03  4.6381436168834791e-03  4.5065899670374051e-03  4.3702042697846451e-03  4.2292273439049110e-03  4.0839199141003259e-03  3.9345632227927611e-03  3.7814596549177156e-03  3.6249333759391538e-03  3.4653309833133951e-03  3.3030221716335737e-03  3.1384004116896177e-03  2.9718836436822653e-03  2.8039149848332191e-03  2.6349634516371952e-03  2.4655246970052510e-03  2.2961217625525896e-03  2.1273058462878492e-03  1.9596570859645767e-03  1.7937853583595389e-03  1.6303310947467639e-03  1.4699661128394319e-03  1.3133944654776853e-03  1.1613533063382013e-03  1.0146137729689956e-03  8.7398188736975138e-04  7.4029947466786950e-04  6.1444509923040073e-04  4.9733502208736710e-04  3.8992416663868542e-04  2.9320714271777160e-04  2.0821914362315419e-04  1.3603740946242654e-04  7.7780670864484899e-05  3.4616224989371516e-05  7.7386257425439903e-06  -1.5455956893840020e-06  -7.0078449751567494e-07  3.5054298568209132e-06  1.5973195565102752e-05  3.6491975199254079e-05  6.4858078066428384e-05  1.0086220790737838e-04  1.4429286082490939e-04  1.9493547948360061e-04  2.5257274775569792e-04  3.1698458322427131e-04  3.8794821416036516e-04  4.6523823746381465e-04  5.4862668538647021e-04  6.3788309366889209e-04  7.3277457315151133e-04  8.3306588439605446e-04  9.3851951553116893e-04  1.0488957633561636e-03  1.1639528177864627e-03  1.2834468497128317e-03  1.4071321023510592e-03  1.5347609861593380e-03  1.6660841774019742e-03  1.8008507204395718e-03  1.9388081338270926e-03  2.0797025203026071e-03  2.2232786807511043e-03  2.3692802322289389e-03  2.5174497301362598e-03  2.6675287946259598e-03  2.8192582413394339e-03  2.9723782165608495e-03  3.1266283368831553e-03  3.2817478334807530e-03  3.4374757010853549e-03  3.5935508517629198e-03  3.7497122735916915e-03  3.9056991943425151e-03  4.0612512502647153e-03  4.2161086600823409e-03  4.3700124043073371e-03  4.5227044099781137e-03  4.6739277409335563e-03  4.8234267937346791e-03  4.9709474993476256e-03  5.1162375307037839e-03  5.2590465162548590e-03  5.3991262596421816e-03  5.5362309656021907e-03  5.6701174722313674e-03  5.8005454897363347e-03  5.9272778457967034e-03  6.0500807376706218e-03  6.1687239911743866e-03  6.2829813266707443e-03  6.3926306322013432e-03  6.4974542439024310e-03  6.5972392338437868e-03  6.6917777054341428e-03  6.7808670965381493e-03  6.8643104904524783e-03  6.9419169348907891e-03  7.0135017691301642e-03  7.0788869594734221e-03  7.1379014431847652e-03  7.1903814810583494e-03  7.2361710187822019e-03  7.2751220572620486e-03  7.3070950320730061e-03  7.3319592022086681e-03  7.3495930483010201e-03  7.3598846804861801e-03  7.3627322560948488e-03  7.3580444073480192e-03  7.3457406792425059e-03  7.3257519778127276e-03  7.2980210289588813e-03  7.2625028480339682e-03  7.2191652203858489e-03  7.1679891930528563e-03  7.1089695778150152e-03  7.0421154658061374e-03  6.9674507538947722e-03  6.8850146830458734e-03  6.7948623888774854e-03  6.6970654646312912e-03  6.5917125367775707e-03  6.4789098534804154e-03  6.3587818861507734e-03  6.2314719443197133e-03  6.0971428040669864e-03  5.9559773502442272e-03  5.8081792327352140e-03  5.6539735369996813e-03  5.4936074691510290e-03  5.3273510558214787e-03  5.1554978590730872e-03  4.9783657066157418e-03  4.7962974375984953e-03  4.6096616642433592e-03  4.4188535495961372e-03  4.2242956016715211e-03  4.0264384842751549e-03  3.8257618447890065e-03  3.6227751592105345e-03  3.4180185947412195e-03  3.2120638902235683e-03  3.0055152547310083e-03  2.7990102846190213e-03  2.5932208993509741e-03  2.3888542964164493e-03  2.1866539256645491e-03  1.9874004833801483e-03  1.7919129264347075e-03  1.6010495068505888e-03  1.4157088271152813e-03  1.2368309166152821e-03  1.0653983294583403e-03  9.0243726435466649e-04  7.4901870575282039e-04  6.0625959095449719e-04  4.7532398732721276e-04  3.5742434065477832e-04  2.5382256863340963e-04  1.6583184471257123e-04  9.4815919968911847e-05  4.2197748881434833e-05  9.4335123388093959e-06  -1.8841066222982324e-06  -8.1986063731492274e-07  4.1010666839269039e-06  1.8687334471877274e-05  4.2692631134615155e-05  7.5878655198711930e-05  1.1800054713381458e-04  1.6881086465178689e-04  2.2805859318991744e-04  2.9548949062297000e-04  3.7084607849281477e-04  4.5386773206564432e-04  5.4429074811816682e-04  6.4184842299843639e-04  7.4627113234029547e-04  8.5728641484262430e-04  9.7461905957033535e-04  1.0979911970274356e-03  1.2271223940417419e-03  1.3617297525592099e-03  1.5015280124320012e-03  1.6462296582901935e-03  1.7955450305872974e-03  1.9491824409117739e-03  2.1068482916581826e-03  2.2682472001532058e-03  2.4330821273335214e-03  2.6010545110740878e-03  2.7718644042671759e-03  2.9452106177540044e-03  3.1207908682129898e-03  3.2983019311098026e-03  3.4774397988168375e-03  3.6578998440110286e-03  3.8393769884611140e-03  4.0215658773170709e-03  4.2041610590167668e-03  4.3868571709261084e-03  4.5693491308317485e-03  4.7513323344067207e-03  4.9325028587718176e-03  5.1125576722774362e-03  5.2911948506324698e-03  5.4681137995095056e-03  5.6430154837570894e-03  5.8156026633523284e-03  5.9855801362293870e-03  6.1526549881213543e-03  6.3165368495555676e-03  6.4769381601444192e-03  6.6335744403164696e-03  6.7861645706345265e-03  6.9344310788502627e-03  7.0781004348469366e-03  7.2169033536245986e-03  7.3505751064845068e-03  7.47