<?xml version="1.0"?>
<VTKFile type="UnstructuredGrid"  version="0.1"  >
<UnstructuredGrid>
<Piece  NumberOfPoints="16641" NumberOfCells="16384">
<Points>
<DataArray  type="Float64"  NumberOfComponents="3"  format="ascii">0 0 0  0.0078125 0 0  0.015625 0 0  0.0234375 0 0  0.03125 0 0  0.0390625 0 0  0.046875 0 0  0.0546875 0 0  0.0625 0 0  0.0703125 0 0  0.078125 0 0  0.0859375 0 0  0.09375 0 0  0.1015625 0 0  0.109375 0 0  0.1171875 0 0  0.125 0 0  0.1328125 0 0  0.140625 0 0  0.1484375 0 0  0.15625 0 0  0.1640625 0 0  0.171875 0 0  0.1796875 0 0  0.1875 0 0  0.1953125 0 0  0.203125 0 0  0.2109375 0 0  0.21875 0 0  0.2265625 0 0  0.234375 0 0  0.2421875 0 0  0.25 0 0  0.2578125 0 0  0.265625 0 0  0.2734375 0 0  0.28125 0 0  0.2890625 0 0  0.296875 0 0  0.3046875 0 0  0.3125 0 0  0.3203125 0 0  0.328125 0 0  0.3359375 0 0  0.34375 0 0  0.3515625 0 0  0.359375 0 0  0.3671875 0 0  0.375 0 0  0.3828125 0 0  0.390625 0 0  0.3984375 0 0  0.40625 0 0  0.4140625 0 0  0.421875 0 0  0.4296875 0 0  0.4375 0 0  0.4453125 0 0  0.453125 0 0  0.4609375 0 0  0.46875 0 0  0.4765625 0 0  0.484375 0 0  0.4921875 0 0  0.5 0 0  0.5078125 0 0  0.515625 0 0  0.5234375 0 0  0.53125 0 0  0.5390625 0 0  0.546875 0 0  0.5546875 0 0  0.5625 0 0  0.5703125 0 0  0.578125 0 0  0.5859375 0 0  0.59375 0 0  0.6015625 0 0  0.609375 0 0  0.6171875 0 0  0.625 0 0  0.6328125 0 0  0.640625 0 0  0.6484375 0 0  0.65625 0 0  0.6640625 0 0  0.671875 0 0  0.6796875 0 0  0.6875 0 0  0.6953125 0 0  0.703125 0 0  0.7109375 0 0  0.71875 0 0  0.7265625 0 0  0.734375 0 0  0.7421875 0 0  0.75 0 0  0.7578125 0 0  0.765625 0 0  0.7734375 0 0  0.78125 0 0  0.7890625 0 0  0.796875 0 0  0.8046875 0 0  0.8125 0 0  0.8203125 0 0  0.828125 0 0  0.8359375 0 0  0.84375 0 0  0.8515625 0 0  0.859375 0 0  0.8671875 0 0  0.875 0 0  0.8828125 0 0  0.890625 0 0  0.8984375 0 0  0.90625 0 0  0.9140625 0 0  0.921875 0 0  0.9296875 0 0  0.9375 0 0  0.9453125 0 0  0.953125 0 0  0.9609375 0 0  0.96875 0 0  0.9765625 0 0  0.984375 0 0  0.9921875 0 0  1 0 0  0 0.0078125 0  0.0078125 0.0078125 0  0.015625 0.0078125 0  0.0234375 0.0078125 0  0.03125 0.0078125 0  0.0390625 0.0078125 0  0.046875 0.0078125 0  0.0546875 0.0078125 0  0.0625 0.0078125 0  0.0703125 0.0078125 0  0.078125 0.0078125 0  0.0859375 0.0078125 0  0.09375 0.0078125 0  0.1015625 0.0078125 0  0.109375 0.0078125 0  0.1171875 0.0078125 0  0.125 0.0078125 0  0.1328125 0.0078125 0  0.140625 0.0078125 0  0.1484375 0.0078125 0  0.15625 0.0078125 0  0.1640625 0.0078125 0  0.171875 0.0078125 0  0.1796875 0.0078125 0  0.1875 0.0078125 0  0.1953125 0.0078125 0  0.203125 0.0078125 0  0.2109375 0.0078125 0  0.21875 0.0078125 0  0.2265625 0.0078125 0  0.234375 0.0078125 0  0.2421875 0.0078125 0  0.25 0.0078125 0  0.2578125 0.0078125 0  0.265625 0.0078125 0  0.2734375 0.0078125 0  0.28125 0.0078125 0  0.2890625 0.0078125 0  0.296875 0.0078125 0  0.3046875 0.0078125 0  0.3125 0.0078125 0  0.3203125 0.0078125 0  0.328125 0.0078125 0  0.3359375 0.0078125 0  0.34375 0.0078125 0  0.3515625 0.0078125 0  0.359375 0.0078125 0  0.3671875 0.0078125 0  0.375 0.0078125 0  0.3828125 0.0078125 0  0.390625 0.0078125 0  0.3984375 0.0078125 0  0.40625 0.0078125 0  0.4140625 0.0078125 0  0.421875 0.0078125 0  0.4296875 0.0078125 0  0.4375 0.0078125 0  0.4453125 0.0078125 0  0.453125 0.0078125 0  0.4609375 0.0078125 0  0.46875 0.0078125 0  0.4765625 0.0078125 0  0.484375 0.0078125 0  0.4921875 0.0078125 0  0.5 0.0078125 0  0.5078125 0.0078125 0  0.515625 0.0078125 0  0.5234375 0.0078125 0  0.53125 0.0078125 0  0.5390625 0.0078125 0  0.546875 0.0078125 0  0.5546875 0.0078125 0  0.5625 0.0078125 0  0.5703125 0.0078125 0  0.578125 0.0078125 0  0.5859375 0.0078125 0  0.59375 0.0078125 0  0.6015625 0.0078125 0  0.609375 0.0078125 0  0.6171875 0.0078125 0  0.625 0.0078125 0  0.6328125 0.0078125 0  0.640625 0.0078125 0  0.6484375 0.0078125 0  0.65625 0.0078125 0  0.6640625 0.0078125 0  0.671875 0.0078125 0  0.6796875 0.0078125 0  0.6875 0.0078125 0  0.6953125 0.0078125 0  0.703125 0.0078125 0  0.7109375 0.0078125 0  0.71875 0.0078125 0  0.7265625 0.0078125 0  0.734375 0.0078125 0  0.7421875 0.0078125 0  0.75 0.0078125 0  0.7578125 0.0078125 0  0.765625 0.0078125 0  0.7734375 0.0078125 0  0.78125 0.0078125 0  0.7890625 0.0078125 0  0.796875 0.0078125 0  0.8046875 0.0078125 0  0.8125 0.0078125 0  0.8203125 0.0078125 0  0.828125 0.0078125 0  0.8359375 0.0078125 0  0.84375 0.0078125 0  0.8515625 0.0078125 0  0.859375 0.0078125 0  0.8671875 0.0078125 0  0.875 0.0078125 0  0.8828125 0.0078125 0  0.890625 0.0078125 0  0.8984375 0.0078125 0  0.90625 0.0078125 0  0.9140625 0.0078125 0  0.921875 0.0078125 0  0.9296875 0.0078125 0  0.9375 0.0078125 0  0.9453125 0.0078125 0  0.953125 0.0078125 0  0.9609375 0.0078125 0  0.96875 0.0078125 0  0.9765625 0.0078125 0  0.984375 0.0078125 0  0.9921875 0.0078125 0  1 0.0078125 0  0 0.015625 0  0.0078125 0.015625 0  0.015625 0.015625 0  0.0234375 0.015625 0  0.03125 0.015625 0  0.0390625 0.015625 0  0.046875 0.015625 0  0.0546875 0.015625 0  0.0625 0.015625 0  0.0703125 0.015625 0  0.078125 0.015625 0  0.0859375 0.015625 0  0.09375 0.015625 0  0.1015625 0.015625 0  0.109375 0.015625 0  0.1171875 0.015625 0  0.125 0.015625 0  0.1328125 0.015625 0  0.140625 0.015625 0  0.1484375 0.015625 0  0.15625 0.015625 0  0.1640625 0.015625 0  0.171875 0.015625 0  0.1796875 0.015625 0  0.1875 0.015625 0  0.1953125 0.015625 0  0.203125 0.015625 0  0.2109375 0.015625 0  0.21875 0.015625 0  0.2265625 0.015625 0  0.234375 0.015625 0  0.2421875 0.015625 0  0.25 0.015625 0  0.2578125 0.015625 0  0.265625 0.015625 0  0.2734375 0.015625 0  0.28125 0.015625 0  0.2890625 0.015625 0  0.296875 0.015625 0  0.3046875 0.015625 0  0.3125 0.015625 0  0.3203125 0.015625 0  0.328125 0.015625 0  0.3359375 0.015625 0  0.34375 0.015625 0  0.3515625 0.015625 0  0.359375 0.015625 0  0.3671875 0.015625 0  0.375 0.015625 0  0.3828125 0.015625 0  0.390625 0.015625 0  0.3984375 0.015625 0  0.40625 0.015625 0  0.4140625 0.015625 0  0.421875 0.015625 0  0.4296875 0.015625 0  0.4375 0.015625 0  0.4453125 0.015625 0  0.453125 0.015625 0  0.4609375 0.015625 0  0.46875 0.015625 0  0.4765625 0.015625 0  0.484375 0.015625 0  0.4921875 0.015625 0  0.5 0.015625 0  0.5078125 0.015625 0  0.515625 0.015625 0  0.5234375 0.015625 0  0.53125 0.015625 0  0.5390625 0.015625 0  0.546875 0.015625 0  0.5546875 0.015625 0  0.5625 0.015625 0  0.5703125 0.015625 0  0.578125 0.015625 0  0.5859375 0.015625 0  0.59375 0.015625 0  0.6015625 0.015625 0  0.609375 0.015625 0  0.6171875 0.015625 0  0.625 0.015625 0  0.6328125 0.015625 0  0.640625 0.015625 0  0.6484375 0.015625 0  0.65625 0.015625 0  0.6640625 0.015625 0  0.671875 0.015625 0  0.6796875 0.015625 0  0.6875 0.015625 0  0.6953125 0.015625 0  0.703125 0.015625 0  0.7109375 0.015625 0  0.71875 0.015625 0  0.7265625 0.015625 0  0.734375 0.015625 0  0.7421875 0.015625 0  0.75 0.015625 0  0.7578125 0.015625 0  0.765625 0.015625 0  0.7734375 0.015625 0  0.78125 0.015625 0  0.7890625 0.015625 0  0.796875 0.015625 0  0.8046875 0.015625 0  0.8125 0.015625 0  0.8203125 0.015625 0  0.828125 0.015625 0  0.8359375 0.015625 0  0.84375 0.015625 0  0.8515625 0.015625 0  0.859375 0.015625 0  0.8671875 0.015625 0  0.875 0.015625 0  0.8828125 0.015625 0  0.890625 0.015625 0  0.8984375 0.015625 0  0.90625 0.015625 0  0.9140625 0.015625 0  0.921875 0.015625 0  0.9296875 0.015625 0  0.9375 0.015625 0  0.9453125 0.015625 0  0.953125 0.015625 0  0.9609375 0.015625 0  0.96875 0.015625 0  0.9765625 0.015625 0  0.984375 0.015625 0  0.9921875 0.015625 0  1 0.015625 0  0 0.0234375 0  0.0078125 0.0234375 0  0.015625 0.0234375 0  0.0234375 0.0234375 0  0.03125 0.0234375 0  0.0390625 0.0234375 0  0.046875 0.0234375 0  0.0546875 0.0234375 0  0.0625 0.0234375 0  0.0703125 0.0234375 0  0.078125 0.0234375 0  0.0859375 0.0234375 0  0.09375 0.0234375 0  0.1015625 0.0234375 0  0.109375 0.0234375 0  0.1171875 0.0234375 0  0.125 0.0234375 0  0.1328125 0.0234375 0  0.140625 0.0234375 0  0.1484375 0.0234375 0  0.15625 0.0234375 0  0.1640625 0.0234375 0  0.171875 0.0234375 0  0.1796875 0.0234375 0  0.1875 0.0234375 0  0.1953125 0.0234375 0  0.203125 0.0234375 0  0.2109375 0.0234375 0  0.21875 0.0234375 0  0.2265625 0.0234375 0  0.234375 0.0234375 0  0.2421875 0.0234375 0  0.25 0.0234375 0  0.2578125 0.0234375 0  0.265625 0.0234375 0  0.2734375 0.0234375 0  0.28125 0.0234375 0  0.2890625 0.0234375 0  0.296875 0.0234375 0  0.3046875 0.0234375 0  0.3125 0.0234375 0  0.3203125 0.0234375 0  0.328125 0.0234375 0  0.3359375 0.0234375 0  0.34375 0.0234375 0  0.3515625 0.0234375 0  0.359375 0.0234375 0  0.3671875 0.0234375 0  0.375 0.0234375 0  0.3828125 0.0234375 0  0.390625 0.0234375 0  0.3984375 0.0234375 0  0.40625 0.0234375 0  0.4140625 0.0234375 0  0.421875 0.0234375 0  0.4296875 0.0234375 0  0.4375 0.0234375 0  0.4453125 0.0234375 0  0.453125 0.0234375 0  0.4609375 0.0234375 0  0.46875 0.0234375 0  0.4765625 0.0234375 0  0.484375 0.0234375 0  0.4921875 0.0234375 0  0.5 0.0234375 0  0.5078125 0.0234375 0  0.515625 0.0234375 0  0.5234375 0.0234375 0  0.53125 0.0234375 0  0.5390625 0.0234375 0  0.546875 0.0234375 0  0.5546875 0.0234375 0  0.5625 0.0234375 0  0.5703125 0.0234375 0  0.578125 0.0234375 0  0.5859375 0.0234375 0  0.59375 0.0234375 0  0.6015625 0.0234375 0  0.609375 0.0234375 0  0.6171875 0.0234375 0  0.625 0.0234375 0  0.6328125 0.0234375 0  0.640625 0.0234375 0  0.6484375 0.0234375 0  0.65625 0.0234375 0  0.6640625 0.0234375 0  0.671875 0.0234375 0  0.6796875 0.0234375 0  0.6875 0.0234375 0  0.6953125 0.0234375 0  0.703125 0.0234375 0  0.7109375 0.0234375 0  0.71875 0.0234375 0  0.7265625 0.0234375 0  0.734375 0.0234375 0  0.7421875 0.0234375 0  0.75 0.0234375 0  0.7578125 0.0234375 0  0.765625 0.0234375 0  0.7734375 0.0234375 0  0.78125 0.0234375 0  0.7890625 0.0234375 0  0.796875 0.0234375 0  0.8046875 0.0234375 0  0.8125 0.0234375 0  0.8203125 0.0234375 0  0.828125 0.0234375 0  0.8359375 0.0234375 0  0.84375 0.0234375 0  0.8515625 0.0234375 0  0.859375 0.0234375 0  0.8671
[...]
<PointData  Scalars="v_sol"> 
<DataArray  type="Float64"  Name="v_sol"  format="ascii">3.0846536525492481e-10  1.5568259095292223e-07  3.0731683435691647e-07  4.5515196472127584e-07  5.9913318296277353e-07  7.3920561129275256e-07  8.7531556463522551e-07  1.0074102714809148e-06  1.1354380119343501e-06  1.2593481453978457e-06  1.3790911692971407e-06  1.4946187710413586e-06  1.6058838833488806e-06  1.7128407402639106e-06  1.8154449346126754e-06  1.9136534767271386e-06  2.0074248545010325e-06  2.0967190948069151e-06  2.1814978262851114e-06  2.2617243435356329e-06  2.3373636727362158e-06  2.4083826387111181e-06  2.4747499334745743e-06  2.5364361862772658e-06  2.5934140351817405e-06  2.6456582001837476e-06  2.6931455579265508e-06  2.7358552180130277e-06  2.7737686009548810e-06  2.8068695177867420e-06  2.8351442513690555e-06  2.8585816394168338e-06  2.8771731592704520e-06  2.8909130144455348e-06  2.8997982229970351e-06  2.9038287077205846e-06  2.9030073882250919e-06  2.8973402749034411e-06  2.8868365648320829e-06  2.8715087396570574e-06  2.8513726654575377e-06  2.8264476946446520e-06  2.7967567699362855e-06  2.7623265304274599e-06  2.7231874197868964e-06  2.6793737966363834e-06  2.6309240471281889e-06  2.5778806997665939e-06  2.5202905425110946e-06  2.4582047421896220e-06  2.3916789662735587e-06  2.3207735070370785e-06  2.2455534081643961e-06  2.1660885938068157e-06  2.0824540001668434e-06  1.9947297096293961e-06  1.9030010874844309e-06  1.8073589212992239e-06  1.7078995629414418e-06  1.6047250733552061e-06  1.4979433700799729e-06  1.3876683775806312e-06  1.2740201804547275e-06  1.1571251795083225e-06  1.0371162507940479e-06  9.1413290765461237e-07  7.8832146578577656e-07  6.5983521139074080e-07  5.2883457249892535e-07  3.9548729344601873e-07  2.5996861259830078e-07  1.2246144338263368e-07  -1.6843441369868109e-08  -1.5774722165287198e-07  -3.0004283908180211e-07  -4.4351480220691658e-07  -5.8793898823032868e-07  -7.3308244113727329e-07  -8.7870316616477882e-07  -1.0245499205106695e-06  -1.1703620002871624e-06  -1.3158690236317783e-06  -1.4607907098953320e-06  -1.6048366548832623e-06  -1.7477061020532467e-06  -1.8890877096567665e-06  -2.0286593137149389e-06  -2.1660876867531240e-06  -2.3010282923066062e-06  -2.4331250350518548e-06  -2.5620100065121621e-06  -2.6873032263395452e-06  -2.8086123789949951e-06  -2.9255325458109078e-06  -3.0376459324212775e-06  -3.1445215913887587e-06  -3.2457151399931606e-06  -3.3407684731526584e-06  -3.4292094713510116e-06  -3.5105517034731900e-06  -3.5842941245858105e-06  -3.6499207684553941e-06  -3.7069004347646269e-06  -3.7546863710299634e-06  -3.7927159490104980e-06  -3.8204103356098271e-06  -3.8371741581762506e-06  -3.8423951640948411e-06  -3.8354438745798502e-06  -3.8156732326476160e-06  -3.7824182450998554e-06  -3.7349956184478431e-06  -3.6727033887438855e-06  -3.5948205451613379e-06  -3.5006066472625587e-06  -3.3893014358478318e-06  -3.2601244373015636e-06  -3.1122745613798021e-06  -2.9449296920891774e-06  -2.7572462725366684e-06  -2.5483588800079989e-06  -2.3173798048526471e-06  -2.0633985815798316e-06  -1.7854816653840324e-06  -1.4826715298686257e-06  -1.1539878927283393e-06  -7.9842096740656257e-07  -4.1495438800072054e-07  -2.4776963651683719e-09  -1.5437058107597600e-09  -7.7910926656017256e-07  -1.5379586920248003e-06  -2.2777955593205508e-06  -2.9983456288912147e-06  -3.6993342663381130e-06  -4.3804928060897289e-06  -5.0415571546905999e-06  -5.6822684813155123e-06  -6.3023733565292485e-06  -6.9016240460584032e-06  -7.4797787708856380e-06  -8.0366019840975094e-06  -8.5718646512309849e-06  -9.0853445378041605e-06  -9.5768265032060760e-06  -1.0046102801237407e-05  -1.0492973387475217e-05  -1.0917246233497856e-05  -1.1318737648130335e-05  -1.1697272605829488e-05  -1.2052685082327882e-05  -1.2384818397656076e-05  -1.2693525566689997e-05  -1.2978669657349248e-05  -1.3240124156525320e-05  -1.3477773343996361e-05  -1.3691512674320644e-05  -1.3881249166936612e-05  -1.4046901804588836e-05  -1.4188401940200895e-05  -1.4305693712400916e-05  -1.4398734469746910e-05  -1.4467495203863346e-05  -1.4511960991662313e-05  -1.4532131446748000e-05  -1.4528021180197345e-05  -1.4499660270831953e-05  -1.4447094745136477e-05  -1.4370387067145210e-05  -1.4269616638188966e-05  -1.4144880306854920e-05  -1.3996292889321274e-05  -1.3823987700185677e-05  -1.3628117093935489e-05  -1.3408853017328689e-05  -1.3166387572795915e-05  -1.2900933593053847e-05  -1.2612725227148482e-05  -1.2302018538056034e-05  -1.1969092112100221e-05  -1.1614247680304105e-05  -1.1237810751999325e-05  -1.0840131260677918e-05  -1.0421584222512624e-05  -9.9825704076030856e-06  -9.5235170242060309e-06  -9.0448784162242283e-06  -8.5471367739422557e-06  -8.0308028585726123e-06  -7.4964167405002976e-06  -6.9445485516005478e-06  -6.3757992519744580e-06  -5.7908014110150279e-06  -5.1902200033110361e-06  -4.5747532195911600e-06  -3.9451332927823516e-06  -3.3021273395161911e-06  -2.6465382175081749e-06  -1.9792053987353503e-06  -1.3010058588346218e-06  -6.1285498309127464e-07  8.4292511046758123e-08  7.8944163425698287e-07  1.5015561684688054e-06  2.2195576925800009e-06  2.9423245901335498e-06  3.6686910390751483e-06  4.3974459831954478e-06  5.1273320847116431e-06  5.8570446581033533e-06  6.5852305846907054e-06  7.3104872075848945e-06  8.0313612069023992e-06  8.7463474546999084e-06  9.4538878496769950e-06  1.0152370130983422e-05  1.0840126670793884e-05  1.1515433245766759e-05  1.2176507786571355e-05  1.2821509105266816e-05  1.3448535600583679e-05  1.4055623940126240e-05  1.4640747719480453e-05  1.5201816098166979e-05  1.5736672411529814e-05  1.6243092758403785e-05  1.6718784564444456e-05  1.7161385120476898e-05  1.7568460095301351e-05  1.7937502023283527e-05  1.8265928765566214e-05  1.8551081944712327e-05  1.8790225352924192e-05  1.8980543332603567e-05  1.9119139129395861e-05  1.9203033217202832e-05  1.9229161594614678e-05  1.9194374052311019e-05  1.9095432411366001e-05  1.8929008731565788e-05  1.8691683489372766e-05  1.8379943725456215e-05  1.7990181160892896e-05  1.7518690281796848e-05  1.6961666391817720e-05  1.6315203632110315e-05  1.5575292968453309e-05  1.4737820143860414e-05  1.3798563600833095e-05  1.2753192355206250e-05  1.1597263887806036e-05  1.0326221799933101e-05  8.9353941896233578e-06  7.4199891470891975e-06  5.7751008662128208e-06  3.9956759118678523e-06  2.0766278961177381e-06  1.2399559798042400e-08  -6.9693970691711972e-09  -3.5174604748010918e-06  -6.9434534498036146e-06  -1.0283610047883145e-05  -1.3536692149878838e-05  -1.6701459851066237e-05  -1.9776700205013662e-05  -2.2761220901777926e-05  -2.5653853393605623e-05  -2.8453453517225602e-05  -3.1158902822002496e-05  -3.3769109743343781e-05  -3.6283010852929590e-05  -3.8699572124312813e-05  -4.1017790231075330e-05  -4.3236693873572075e-05  -4.5355345135918138e-05  -4.7372840873559814e-05  -4.9288314131948223e-05  -5.1100935596876376e-05  -5.2809915077035131e-05  -5.4414503019352684e-05  -5.5913992057664755e-05  -5.7307718595317296e-05  -5.8595064422307201e-05  -5.9775458367446798e-05  -6.0848377986349290e-05  -6.1813351285657165e-05  -6.2669958484211412e-05  -6.3417833811829944e-05  -6.4056667346271910e-05  -6.4586206889111455e-05  -6.5006259881066300e-05  -6.5316695357533038e-05  -6.5517445945011891e-05  -6.5608509899122558e-05  -6.5589953184830651e-05  -6.5461911599624592e-05  -6.5224592940369477e-05  -6.4878279214712994e-05  -6.4423328897495708e-05  -6.3860179233086314e-05  -6.3189348584484744e-05  -6.2411438829833348e-05  -6.1527137807095727e-05  -6.0537221807839199e-05  -5.9442558120845592e-05  -5.8244107626357628e-05  -5.6942927441849079e-05  -5.5540173620087864e-05  -5.4037103900426001e-05  -5.2435080514135989e-05  -5.0735573044778013e-05  -4.8940161344247759e-05  -4.7050538505688194e-05  -4.5068513894022492e-05  -4.2996016235119965e-05  -4.0835096764547558e-05  -3.8587932436666597e-05  -3.6256829195451607e-05  -3.3844225307606275e-05  -3.1352694759184259e-05  -2.8784950716861554e-05  -2.6143849054505668e-05  -2.3432391946439902e-05  -2.0653731528448934e-05  -1.7811173627299698e-05  -1.4908181560108268e-05  -1.1948380004813845e-05  -8.9355589424949984e-06  -5.8736776728942369e-06  -2.7668689043834819e-06  3.8055708075359236e-07  3.5641081840729375e-06  6.7791061710008484e-06  1.0020682271829908e-05  1.3283772702056448e-05  1.6563114101319007e-05  1.9853238889465627e-05  2.3148470538184245e-05  2.6442918757342783e-05  2.9730474594520687e-05  3.3004805446186843e-05  3.6259349979454678e-05  3.9487312962746352e-05  4.2681660004410425e-05  4.5835112197411102e-05  4.8940140668584612e-05  5.1988961031624598e-05  5.4973527741679103e-05  5.7885528350184078e-05  6.0716377658912883e-05  6.3457211770866196e-05  6.6098882036813992e-05  6.8631948896435277e-05  7.1046675611564642e-05  7.3333021890193729e-05  7.5480637400017454e-05  7.7478855169332963e-05  7.9316684873467167e-05  8.0982806005874339e-05  8.2465560931183844e-05  8.3752947818576155e-05  8.4832613454534150e-05  8.5691845932047748e-05  8.6317567215002473e-05  8.6696325575907296e-05  8.6814287904836797e-05  8.6657231887528961e-05  8.6210538051373166e-05  8.5459181676584498e-05  8.4387724570585094e-05  8.2980306704208087e-05  8.1220637707025544e-05  7.9091988219954414e-05  7.6577181102981145e-05  7.3658582495658524e-05  7.0318092729723192e-05  6.6537137085243009e-05  6.2296656411634549e-05  5.7577097524475381e-05  5.2358403697808474e-05  4.6620004051982075e-05  4.0340806289819439e-05  3.3499176205326038e-05  2.6072965606778273e-05  1.8039359418140806e-05  9.3753941868488870e-06  5.5980584945265221e-08  -1.5790422999709193e-08  -7.9694419330192266e-06  -1.5731647759521547e-05  -2.3299375781443067e-05  -3.0669820810971465e-05  -3.7840173612808317e-05  -4.4807686038466290e-05  -5.1569656693430673e-05  -5.8123438022167859e-05  -6.4466437716266637e-05  -7.0596121724149667e-05  -7.6510016909347143e-05  -8.2205713883187349e-05  -8.7680869872256163e-05  -9.2933211659578440e-05  -9.7960538590571898e-05  -1.0276072564761269e-04  -1.0733172659377699e-04  -1.1167157718712094e-04  -1.1577839846668817e-04  -1.1965040011149883e-04  -1.2328588387382910e-04  -1.2668324708801007e-04  -1.2984098625610000e-04  -1.3275770071178138e-04  -1.3543209636369952e-04  -1.3786298951984108e-04  -1.4004931079408773e-04  -1.4199010909649959e-04  -1.4368455570875274e-04  -1.4513194844612026e-04  -1.4633171590757251e-04  -1.4728342181532204e-04  -1.4798676944546298e-04  -1.4844160615122386e-04  -1.4864792798043535e-04  -1.4860588438865151e-04  -1.4831578304960602e-04  -1.4777809476468885e-04  -1.4699345847315050e-04  -1.4596268636445905e-04  -1.4468676909472789e-04  -1.4316688110895638e-04  -1.4140438607074336e-04  -1.3940084240121820e-04  -1.3715800892911419e-04  -1.3467785065377933e-04  -1.3196254462292809e-04  -1.2901448592707567e-04  -1.2583629381253487e-04  -1.2243081791494249e-04  -1.1880114461527302e-04  -1.1495060352043853e-04  -1.1088277407020819e-04  -1.0660149227283593e-04  -1.0211085757131959e-04  -9.7415239842427143e-05  -9.2519286530711578e-05  -8.7427929919440579e-05  -8.2146394541073297e-05  -7.6680204729122968e-05  -7.1035192313854959e-05  -6.5217504464262405e-05  -5.9233611678296969e-05  -5.3090315924054138e-05  -4.6794758934302006e-05  -4.0354430656493553e-05  -3.3777177860986043e-05  -2.7071212910141586e-05  -2.0245122690418968e-05  -1.3307877710321488e-05  -6.2688413668611847e-06  8.6222061709670725e-07  8.0751305814195209e-06  1.5359289141001892e-05  2.2703665218862744e-05  3.0096785896867821e-05  3.7526726081739247e-05  4.4981097983277005e-05  5.2447040401566656e-05  5.9911207820701135e-05  6.7359759305759425e-05  7.4778347199849459e-05  8.2152105618380085e-05  8.9465638737119509e-05  9.6703008871390221e-05  1.0384772434262468e-04  1.1088272712898109e-04  1.1779038029733962e-04  1.2455245521266077e-04  1.3115011852145894e-04  1.3756391890640295e-04  1.4377377360772720e-04  1.4975895470825275e-04  1.5549807517898021e-04  1.6096907468076416e-04  1.6614920511852642e-04  1.7101501594480369e-04  1.7554233920828916e-04  1.7970627434334537e-04  1.8348117269747469e-04  1.8684062179188374e-04  1.8975742931107994e-04  1.9220360681842269e-04  1.9415035319245917e-04  1.9556803778020246e-04  1.9642618326333163e-04  1.9669344823274588e-04  1.9633760946685428e-04  1.9532554391002489e-04  1.9362321034594333e-04  1.9119563076125281e-04  1.8800687139561859e-04  1.8402002347291086e-04  1.7919718360895169e-04  1.7349943389115158e-04  1.6688682162431875e-04  1.5931833874154006e-04  1.5075190086064308e-04  1.4114432603440895e-04  1.3045131299229662e-04  1.1862741960098086e-04  1.0562603881438994e-04  9.1399382234862926e-05  7.5898433636170616e-05  5.9073012352980301e-05  4.0871426595503777e-05  2.1241648616072875e-05  1.2683413291061771e-07  -2.7840067045193027e-08  -1.4050911577575566e-05  -2.7736445513686896e-05  -4.1079095925643653e-05  -5.4073916983175084e-05  -6.6715955720250661e-05  -7.9000366879041533e-05  -9.0922387633517632e-05  -1.0247735008236559e-04  -1.1366068373045651e-04  -1.2446792079543140e-04  -1.3489470089427045e-04  -1.4493677603763524e-04  -1.5459001568544144e-04  -1.6385041193245510e-04  -1.7271408480805722e-04  -1.8117728769703354e-04  -1.8923641288228938e-04  -1.9688799721193984e-04  -2.0412872789286890e-04  -2.1095544841295965e-04  -2.1736516459430039e-04  -2.2335505077955090e-04  -2.2892245615383904e-04  -2.3406491120454921e-04  -2.3878013432124782e-04  -2.4306603853837714e-04  -2.4692073842293215e-04  -2.5034255710971786e-04  -2.5333003348674513e-04  -2.5588192953322699e-04  -2.5799723781288575e-04  -2.5967518912502435e-04  -2.6091526031619619e-04  -2.6171718225514345e-04  -2.6208094797381721e-04  -2.6200682097707420e-04  -2.6149534372401880e-04  -2.6054734628391303e-04  -2.5916395516959058e-04  -2.5734660235108577e-04  -2.5509703445274499e-04  -2.5241732213681544e-04  -2.4930986967656554e-04  -2.4577742472199518e-04  -2.4182308826146395e-04  -2.3745032478243562e-04  -2.3266297263455264e-04  -2.2746525459839105e-04  -2.2186178866330801e-04  -2.1585759901775393e-04  -2.0945812725556512e-04  -2.0266924380183004e-04  -1.9549725956161481e-04  -1.8794893779551332e-04  -1.8003150622555050e-04  -1.7175266937514497e-04  -1.6312062114702829e-04  -1.5414405764271793e-04  -1.4483219022782745e-04  -1.3519475884676171e-04  -1.2524204559105119e-04  -1.1498488852541454e-04  -1.0443469577540522e-04  -9.3603459881143141e-05  -8.2503772421266887e-05  -7.1148838911235052e-05  -5.9552493980496287e-05  -4.7729216833163299e-05  -3.5694146996249917e-05  -2.3463100360232608e-05  -1.1052585516718570e-05  1.5201796024910311e-06  1.4237250779680602e-05  2.7079940254445415e-05  4.0028799150994725e-05  5.3063599584089243e-05  6.6163316439149118e-05  7.9306108821236991e-05  9.2469301167489383e-05  1.0562936401819475e-04  1.1876189444101390e-04  1.3184159610283029e-04  1.4484225898395817e-04  1.5773673872895711e-04  1.7049693562889645e-04  1.8309377322891701e-04  1.9549717655520585e-04  2.0767604995619820e-04  2.1959825455148037e-04  2.3123058528243273e-04  2.4253874755909304e-04  2.5348733349620721e-04  2.6403979773251637e-04  2.7415843282748982e-04  2.8380434422837727e-04  2.9293742480099668e-04  3.0151632891827472e-04  3.0949844609939870e-04  3.1683987419241000e-04  3.2349539209434617e-04  3.2941843200116704e-04  3.3456105118003627e-04  3.3887390325798740e-04  3.4230620901867808e-04  3.4480572670000069e-04  3.4631872178542031e-04  3.4678993628123837e-04  3.4616255747162356e-04  3.4437818614463785e-04  3.4137680428060377e-04  3.3709674219455522e-04  3.3147464512543973e-04  3.2444543926338085e-04  3.1594229720655325e-04  3.0589660283968101e-04  2.9423791562384794e-04  2.8089393429581497e-04  2.6579045994251047e-04  2.4885135853563360e-04  2.2999852256911998e-04  2.0915183308448248e-04  1.8622911726417832e-04  1.6114611945984388e-04  1.3381641921938672e-04  1.0415154311969721e-04  7.2060353375541893e-05  3.7451120015032551e-05  2.2362107487495395e-07  -4.2952015687870316e-08  -2.1677930668990796e-05  -4.2792151962172154e-05  -6.3377368073162471e-05  -8.3425948500872294e-05  -1.0293025173655824e-04  -1.2188280245041529e-04  -1.4027625249018091e-04  -1.5810340015607618e-04  -1.7535719402819556e-04  -1.9203074115357009e-04  -2.0811731427643887e-04  -2.2361035954356352e-04  -2.3850350430397043e-04  -2.5279056510934595e-04  -2.6646555589055702e-04  -2.7952269632092376e-04  -2.9195642036758884e-04  -3.0376138503477625e-04  -3.1493247930215718e-04  -3.2546483326176159e-04  -3.3535382745693629e-04  -3.4459510242674558e-04  -3.5318456845949566e-04  -3.6111841555896263e-04  -3.6839312362685843e-04  -3.7500547286553235e-04  -3.8095255440437055e-04  -3.8623178115390177e-04  -3.9084089889149438e-04  -3.9477799758255169e-04  -3.9804152294123059e-04  -4.0063028823464412e-04  -4.0254348633482939e-04  -4.0378070202257816e-04  -4.0434192454747841e-04  -4.0422756044823438e-04  -4.0343844663782476e-04  -4.0197586375795378e-04  -3.9984154980731362e-04  -3.9703771404797210e-04  -3.9356705119479856e-04  -3.8943275589258349e-04  -3.8463853748554796e-04  -3.7918863508405005e-04  -3.7308783293351472e-04  -3.6634147609053755e-04  -3.5895548641120103e-04  -3.5093637885667660e-04  -3.4229127812142828e-04  -3.3302793558923728e-04  -3.2315474662240494e-04  -3.1268076818967433e-04  -3.0161573683811654e-04  -2.8997008701485096e-04  -2.7775496974417766e-04  -2.6498227166587245e-04  -2.5166463444049300e-04  -2.3781547452751120e-04  -2.2344900334258491e-04  -2.0858024779965459e-04  -1.9322507124438698e-04  -1.7740019478511930e-04  -1.6112321902754067e-04  -1.4441264621979701e-04  -1.2728790281446250e-04  -1.0976936245387876e-04  -9.1878369385738445e-05  -7.3637262315910231e-05  -5.5069398705075158e-05  -3.6199179516345287e-05  -1.7052074421166863e-05  2.3453525296257254e-06  2.1965416761799524e-05  4.1779286553766807e-05  6.1756955925073618e-05  8.1867217029304258e-05  1.0207763204417341e-04  1.2235450455070382e-04  1.4266285039331563e-04  1.6296636801314379e-04  1.8322740824625546e-04  2.0340694357823375e-04  2.2346453684697965e-04  2.4335830938496832e-04  2.6304490859265878e-04  2.8247947493397163e-04  3.0161560834470288e-04  3.2040533404550399e-04  3.3879906774980385e-04  3.5674558025728715e-04  3.7419196142421445e-04  3.9108358350020196e-04  4.0736406382199739e-04  4.2297522685504974e-04  4.3785706557242373e-04  4.5194770216066041e-04  4.6518334804311189e-04  4.7749826321015634e-04  4.8882471484504265e-04  4.9909293523600065e-04  5.0823107896317177e-04  5.1616517934861405e-04  5.2281910415997838e-04  5.2811451055539364e-04  5.3197079925829387e-04  5.3430506795106654e-04  5.3503206387561753e-04  5.3406413562835534e-04  5.3131118413874811e-04  5.2668061281853980e-04  5.2007727686883382e-04  5.1140343173336109e-04  5.0055868068491307e-04  4.8743992153174170e-04  4.7194129243168068e-04  4.5395411679795673e-04  4.3336684729394228e-04  4.1006500886403460e-04  3.8393114093155170e-04  3.5484473821215302e-04  3.2268219212699115e-04  2.8731672537453358e-04  2.4861834724026832e-04  2.0645372710781013e-04  1.6068636704561618e-04  1.1117565844136180e-04  5.7780079155306488e-05  3.4500552214578612e-07  -6.0963322706086974e-08  -3.0768259938513714e-05  -6.0736427102425322e-05  -8.9953758367664657e-05  -1.1840942348205798e-04  -1.4609257657167830e-04  -1.7299260763094183e-04  -1.9909908716298768e-04  -2.2440179353765409e-04  -2.4889071842291267e-04  -2.7255607840496381e-04  -2.9538832525016258e-04  -3.1737815684137934e-04  -3.3851652824838755e-04  -3.5879466308306465e-04  -3.7820406510459163e-04  -3.9673653008974783e-04  -4.1438415797015769e-04  -4.3113936524190430e-04  -4.4699489765205781e-04  -4.6194384316703194e-04  -4.7597964522769383e-04  -4.8909611629606897e-04  -5.0128745169888240e-04  -5.1254824377294328e-04  -5.2287349631752514e-04  -5.3225863935926407e-04  -5.4069954423458292e-04  -5.4819253899532924e-04  -5.5473442414308977e-04  -5.6032248869777315e-04  -5.6495452660613272e-04  -5.6862885349590248e-04  -5.7134432378161111e-04  -5.7310034812782062e-04  -5.7389691127604861e-04  -5.7373459024109548e