<?xml version="1.0"?>
<VTKFile type="UnstructuredGrid"  version="0.1"  >
<UnstructuredGrid>
<Piece  NumberOfPoints="16641" NumberOfCells="16384">
<Points>
<DataArray  type="Float64"  NumberOfComponents="3"  format="ascii">0 0 0  0.0078125 0 0  0.015625 0 0  0.0234375 0 0  0.03125 0 0  0.0390625 0 0  0.046875 0 0  0.0546875 0 0  0.0625 0 0  0.0703125 0 0  0.078125 0 0  0.0859375 0 0  0.09375 0 0  0.1015625 0 0  0.109375 0 0  0.1171875 0 0  0.125 0 0  0.1328125 0 0  0.140625 0 0  0.1484375 0 0  0.15625 0 0  0.1640625 0 0  0.171875 0 0  0.1796875 0 0  0.1875 0 0  0.1953125 0 0  0.203125 0 0  0.2109375 0 0  0.21875 0 0  0.2265625 0 0  0.234375 0 0  0.2421875 0 0  0.25 0 0  0.2578125 0 0  0.265625 0 0  0.2734375 0 0  0.28125 0 0  0.2890625 0 0  0.296875 0 0  0.3046875 0 0  0.3125 0 0  0.3203125 0 0  0.328125 0 0  0.3359375 0 0  0.34375 0 0  0.3515625 0 0  0.359375 0 0  0.3671875 0 0  0.375 0 0  0.3828125 0 0  0.390625 0 0  0.3984375 0 0  0.40625 0 0  0.4140625 0 0  0.421875 0 0  0.4296875 0 0  0.4375 0 0  0.4453125 0 0  0.453125 0 0  0.4609375 0 0  0.46875 0 0  0.4765625 0 0  0.484375 0 0  0.4921875 0 0  0.5 0 0  0.5078125 0 0  0.515625 0 0  0.5234375 0 0  0.53125 0 0  0.5390625 0 0  0.546875 0 0  0.5546875 0 0  0.5625 0 0  0.5703125 0 0  0.578125 0 0  0.5859375 0 0  0.59375 0 0  0.6015625 0 0  0.609375 0 0  0.6171875 0 0  0.625 0 0  0.6328125 0 0  0.640625 0 0  0.6484375 0 0  0.65625 0 0  0.6640625 0 0  0.671875 0 0  0.6796875 0 0  0.6875 0 0  0.6953125 0 0  0.703125 0 0  0.7109375 0 0  0.71875 0 0  0.7265625 0 0  0.734375 0 0  0.7421875 0 0  0.75 0 0  0.7578125 0 0  0.765625 0 0  0.7734375 0 0  0.78125 0 0  0.7890625 0 0  0.796875 0 0  0.8046875 0 0  0.8125 0 0  0.8203125 0 0  0.828125 0 0  0.8359375 0 0  0.84375 0 0  0.8515625 0 0  0.859375 0 0  0.8671875 0 0  0.875 0 0  0.8828125 0 0  0.890625 0 0  0.8984375 0 0  0.90625 0 0  0.9140625 0 0  0.921875 0 0  0.9296875 0 0  0.9375 0 0  0.9453125 0 0  0.953125 0 0  0.9609375 0 0  0.96875 0 0  0.9765625 0 0  0.984375 0 0  0.9921875 0 0  1 0 0  0 0.0078125 0  0.0078125 0.0078125 0  0.015625 0.0078125 0  0.0234375 0.0078125 0  0.03125 0.0078125 0  0.0390625 0.0078125 0  0.046875 0.0078125 0  0.0546875 0.0078125 0  0.0625 0.0078125 0  0.0703125 0.0078125 0  0.078125 0.0078125 0  0.0859375 0.0078125 0  0.09375 0.0078125 0  0.1015625 0.0078125 0  0.109375 0.0078125 0  0.1171875 0.0078125 0  0.125 0.0078125 0  0.1328125 0.0078125 0  0.140625 0.0078125 0  0.1484375 0.0078125 0  0.15625 0.0078125 0  0.1640625 0.0078125 0  0.171875 0.0078125 0  0.1796875 0.0078125 0  0.1875 0.0078125 0  0.1953125 0.0078125 0  0.203125 0.0078125 0  0.2109375 0.0078125 0  0.21875 0.0078125 0  0.2265625 0.0078125 0  0.234375 0.0078125 0  0.2421875 0.0078125 0  0.25 0.0078125 0  0.2578125 0.0078125 0  0.265625 0.0078125 0  0.2734375 0.0078125 0  0.28125 0.0078125 0  0.2890625 0.0078125 0  0.296875 0.0078125 0  0.3046875 0.0078125 0  0.3125 0.0078125 0  0.3203125 0.0078125 0  0.328125 0.0078125 0  0.3359375 0.0078125 0  0.34375 0.0078125 0  0.3515625 0.0078125 0  0.359375 0.0078125 0  0.3671875 0.0078125 0  0.375 0.0078125 0  0.3828125 0.0078125 0  0.390625 0.0078125 0  0.3984375 0.0078125 0  0.40625 0.0078125 0  0.4140625 0.0078125 0  0.421875 0.0078125 0  0.4296875 0.0078125 0  0.4375 0.0078125 0  0.4453125 0.0078125 0  0.453125 0.0078125 0  0.4609375 0.0078125 0  0.46875 0.0078125 0  0.4765625 0.0078125 0  0.484375 0.0078125 0  0.4921875 0.0078125 0  0.5 0.0078125 0  0.5078125 0.0078125 0  0.515625 0.0078125 0  0.5234375 0.0078125 0  0.53125 0.0078125 0  0.5390625 0.0078125 0  0.546875 0.0078125 0  0.5546875 0.0078125 0  0.5625 0.0078125 0  0.5703125 0.0078125 0  0.578125 0.0078125 0  0.5859375 0.0078125 0  0.59375 0.0078125 0  0.6015625 0.0078125 0  0.609375 0.0078125 0  0.6171875 0.0078125 0  0.625 0.0078125 0  0.6328125 0.0078125 0  0.640625 0.0078125 0  0.6484375 0.0078125 0  0.65625 0.0078125 0  0.6640625 0.0078125 0  0.671875 0.0078125 0  0.6796875 0.0078125 0  0.6875 0.0078125 0  0.6953125 0.0078125 0  0.703125 0.0078125 0  0.7109375 0.0078125 0  0.71875 0.0078125 0  0.7265625 0.0078125 0  0.734375 0.0078125 0  0.7421875 0.0078125 0  0.75 0.0078125 0  0.7578125 0.0078125 0  0.765625 0.0078125 0  0.7734375 0.0078125 0  0.78125 0.0078125 0  0.7890625 0.0078125 0  0.796875 0.0078125 0  0.8046875 0.0078125 0  0.8125 0.0078125 0  0.8203125 0.0078125 0  0.828125 0.0078125 0  0.8359375 0.0078125 0  0.84375 0.0078125 0  0.8515625 0.0078125 0  0.859375 0.0078125 0  0.8671875 0.0078125 0  0.875 0.0078125 0  0.8828125 0.0078125 0  0.890625 0.0078125 0  0.8984375 0.0078125 0  0.90625 0.0078125 0  0.9140625 0.0078125 0  0.921875 0.0078125 0  0.9296875 0.0078125 0  0.9375 0.0078125 0  0.9453125 0.0078125 0  0.953125 0.0078125 0  0.9609375 0.0078125 0  0.96875 0.0078125 0  0.9765625 0.0078125 0  0.984375 0.0078125 0  0.9921875 0.0078125 0  1 0.0078125 0  0 0.015625 0  0.0078125 0.015625 0  0.015625 0.015625 0  0.0234375 0.015625 0  0.03125 0.015625 0  0.0390625 0.015625 0  0.046875 0.015625 0  0.0546875 0.015625 0  0.0625 0.015625 0  0.0703125 0.015625 0  0.078125 0.015625 0  0.0859375 0.015625 0  0.09375 0.015625 0  0.1015625 0.015625 0  0.109375 0.015625 0  0.1171875 0.015625 0  0.125 0.015625 0  0.1328125 0.015625 0  0.140625 0.015625 0  0.1484375 0.015625 0  0.15625 0.015625 0  0.1640625 0.015625 0  0.171875 0.015625 0  0.1796875 0.015625 0  0.1875 0.015625 0  0.1953125 0.015625 0  0.203125 0.015625 0  0.2109375 0.015625 0  0.21875 0.015625 0  0.2265625 0.015625 0  0.234375 0.015625 0  0.2421875 0.015625 0  0.25 0.015625 0  0.2578125 0.015625 0  0.265625 0.015625 0  0.2734375 0.015625 0  0.28125 0.015625 0  0.2890625 0.015625 0  0.296875 0.015625 0  0.3046875 0.015625 0  0.3125 0.015625 0  0.3203125 0.015625 0  0.328125 0.015625 0  0.3359375 0.015625 0  0.34375 0.015625 0  0.3515625 0.015625 0  0.359375 0.015625 0  0.3671875 0.015625 0  0.375 0.015625 0  0.3828125 0.015625 0  0.390625 0.015625 0  0.3984375 0.015625 0  0.40625 0.015625 0  0.4140625 0.015625 0  0.421875 0.015625 0  0.4296875 0.015625 0  0.4375 0.015625 0  0.4453125 0.015625 0  0.453125 0.015625 0  0.4609375 0.015625 0  0.46875 0.015625 0  0.4765625 0.015625 0  0.484375 0.015625 0  0.4921875 0.015625 0  0.5 0.015625 0  0.5078125 0.015625 0  0.515625 0.015625 0  0.5234375 0.015625 0  0.53125 0.015625 0  0.5390625 0.015625 0  0.546875 0.015625 0  0.5546875 0.015625 0  0.5625 0.015625 0  0.5703125 0.015625 0  0.578125 0.015625 0  0.5859375 0.015625 0  0.59375 0.015625 0  0.6015625 0.015625 0  0.609375 0.015625 0  0.6171875 0.015625 0  0.625 0.015625 0  0.6328125 0.015625 0  0.640625 0.015625 0  0.6484375 0.015625 0  0.65625 0.015625 0  0.6640625 0.015625 0  0.671875 0.015625 0  0.6796875 0.015625 0  0.6875 0.015625 0  0.6953125 0.015625 0  0.703125 0.015625 0  0.7109375 0.015625 0  0.71875 0.015625 0  0.7265625 0.015625 0  0.734375 0.015625 0  0.7421875 0.015625 0  0.75 0.015625 0  0.7578125 0.015625 0  0.765625 0.015625 0  0.7734375 0.015625 0  0.78125 0.015625 0  0.7890625 0.015625 0  0.796875 0.015625 0  0.8046875 0.015625 0  0.8125 0.015625 0  0.8203125 0.015625 0  0.828125 0.015625 0  0.8359375 0.015625 0  0.84375 0.015625 0  0.8515625 0.015625 0  0.859375 0.015625 0  0.8671875 0.015625 0  0.875 0.015625 0  0.8828125 0.015625 0  0.890625 0.015625 0  0.8984375 0.015625 0  0.90625 0.015625 0  0.9140625 0.015625 0  0.921875 0.015625 0  0.9296875 0.015625 0  0.9375 0.015625 0  0.9453125 0.015625 0  0.953125 0.015625 0  0.9609375 0.015625 0  0.96875 0.015625 0  0.9765625 0.015625 0  0.984375 0.015625 0  0.9921875 0.015625 0  1 0.015625 0  0 0.0234375 0  0.0078125 0.0234375 0  0.015625 0.0234375 0  0.0234375 0.0234375 0  0.03125 0.0234375 0  0.0390625 0.0234375 0  0.046875 0.0234375 0  0.0546875 0.0234375 0  0.0625 0.0234375 0  0.0703125 0.0234375 0  0.078125 0.0234375 0  0.0859375 0.0234375 0  0.09375 0.0234375 0  0.1015625 0.0234375 0  0.109375 0.0234375 0  0.1171875 0.0234375 0  0.125 0.0234375 0  0.1328125 0.0234375 0  0.140625 0.0234375 0  0.1484375 0.0234375 0  0.15625 0.0234375 0  0.1640625 0.0234375 0  0.171875 0.0234375 0  0.1796875 0.0234375 0  0.1875 0.0234375 0  0.1953125 0.0234375 0  0.203125 0.0234375 0  0.2109375 0.0234375 0  0.21875 0.0234375 0  0.2265625 0.0234375 0  0.234375 0.0234375 0  0.2421875 0.0234375 0  0.25 0.0234375 0  0.2578125 0.0234375 0  0.265625 0.0234375 0  0.2734375 0.0234375 0  0.28125 0.0234375 0  0.2890625 0.0234375 0  0.296875 0.0234375 0  0.3046875 0.0234375 0  0.3125 0.0234375 0  0.3203125 0.0234375 0  0.328125 0.0234375 0  0.3359375 0.0234375 0  0.34375 0.0234375 0  0.3515625 0.0234375 0  0.359375 0.0234375 0  0.3671875 0.0234375 0  0.375 0.0234375 0  0.3828125 0.0234375 0  0.390625 0.0234375 0  0.3984375 0.0234375 0  0.40625 0.0234375 0  0.4140625 0.0234375 0  0.421875 0.0234375 0  0.4296875 0.0234375 0  0.4375 0.0234375 0  0.4453125 0.0234375 0  0.453125 0.0234375 0  0.4609375 0.0234375 0  0.46875 0.0234375 0  0.4765625 0.0234375 0  0.484375 0.0234375 0  0.4921875 0.0234375 0  0.5 0.0234375 0  0.5078125 0.0234375 0  0.515625 0.0234375 0  0.5234375 0.0234375 0  0.53125 0.0234375 0  0.5390625 0.0234375 0  0.546875 0.0234375 0  0.5546875 0.0234375 0  0.5625 0.0234375 0  0.5703125 0.0234375 0  0.578125 0.0234375 0  0.5859375 0.0234375 0  0.59375 0.0234375 0  0.6015625 0.0234375 0  0.609375 0.0234375 0  0.6171875 0.0234375 0  0.625 0.0234375 0  0.6328125 0.0234375 0  0.640625 0.0234375 0  0.6484375 0.0234375 0  0.65625 0.0234375 0  0.6640625 0.0234375 0  0.671875 0.0234375 0  0.6796875 0.0234375 0  0.6875 0.0234375 0  0.6953125 0.0234375 0  0.703125 0.0234375 0  0.7109375 0.0234375 0  0.71875 0.0234375 0  0.7265625 0.0234375 0  0.734375 0.0234375 0  0.7421875 0.0234375 0  0.75 0.0234375 0  0.7578125 0.0234375 0  0.765625 0.0234375 0  0.7734375 0.0234375 0  0.78125 0.0234375 0  0.7890625 0.0234375 0  0.796875 0.0234375 0  0.8046875 0.0234375 0  0.8125 0.0234375 0  0.8203125 0.0234375 0  0.828125 0.0234375 0  0.8359375 0.0234375 0  0.84375 0.0234375 0  0.8515625 0.0234375 0  0.859375 0.0234375 0  0.8671
[...]
<PointData  Scalars="u_sol"> 
<DataArray  type="Float64"  Name="u_sol"  format="ascii">-6.1530058663909670e-10  3.0778045385909560e-09  1.4024644090846961e-08  3.2040360917044227e-08  5.6946112225230112e-08  8.8558133809918674e-08  1.2669072336061502e-07  1.7115549738760591e-07  2.2176165023743239e-07  2.7831594729967934e-07  3.4062279273351942e-07  4.0848428026825166e-07  4.8170025183645535e-07  5.6006835737758138e-07  6.4338411772875267e-07  7.3144099013575602e-07  8.2403043661643378e-07  9.2094199515888953e-07  1.0219633538747634e-06  1.1268804281407634e-06  1.2354774408076190e-06  1.3475370055292718e-06  1.4628402133153072e-06  1.5811667223437677e-06  1.7022948511002907e-06  1.8260016749702520e-06  1.9520631262970330e-06  2.0802540979958071e-06  2.2103485508377329e-06  2.3421196244302051e-06  2.4753397520025051e-06  2.6097807790924505e-06  2.7452140861445416e-06  2.8814107152129230e-06  3.0181415007525940e-06  3.1551772046307678e-06  3.2922886554405120e-06  3.4292468922481438e-06  3.5658233127732184e-06  3.7017898261253367e-06  3.8369190103151748e-06  3.9709842743769035e-06  4.1037600254972225e-06  4.2350218410148307e-06  4.3645466454448812e-06  4.4921128928204297e-06  4.6175007541503672e-06  4.7404923102685442e-06  4.8608717501564111e-06  4.9784255749928737e-06  5.0929428076753037e-06  5.2042152082581894e-06  5.3120374953578073e-06  5.4162075734798969e-06  5.5165267665908736e-06  5.6128000579798439e-06  5.7048363363526364e-06  5.7924486486362777e-06  5.8754544593294255e-06  5.9536759166395918e-06  6.0269401256061499e-06  6.0950794279581996e-06  6.1579316896035576e-06  6.2153405950269276e-06  6.2671559492482180e-06  6.3132339875224090e-06  6.3534376924610298e-06  6.3876371192428182e-06  6.4157097288359978e-06  6.4375407292612491e-06  6.4530234252087882e-06  6.4620595762677389e-06  6.4645597634803962e-06  6.4604437649980970e-06  6.4496409405924351e-06  6.4320906250397775e-06  6.4077425311674532e-06  6.3765571620876030e-06  6.3385062330383829e-06  6.2935731032362863e-06  6.2417532175825640e-06  6.1830545582059034e-06  6.1174981069519854e-06  6.0451183180559445e-06  5.9659636012195608e-06  5.8800968162234305e-06  5.7875957781862160e-06  5.6885537743441294e-06  5.5830800920176896e-06  5.4713005586378592e-06  5.3533580934953108e-06  5.2294132715683183e-06  5.0996448997736966e-06  4.9642506055978294e-06  4.8234474387477071e-06  4.6774724856617027e-06  4.5265834969502942e-06  4.3710595287831888e-06  4.2112015977580041e-06  4.0473333492295645e-06  3.8798017406730715e-06  3.7089777387087175e-06  3.5352570308535941e-06  3.3590607526621562e-06  3.1808362295308590e-06  3.0010577339225220e-06  2.8202272586953684e-06  2.6388753058846378e-06  2.4575616917436856e-06  2.2768763688779954e-06  2.0974402642035060e-06  1.9199061346086911e-06  1.7449594398753276e-06  1.5733192329595023e-06  1.4057390683829478e-06  1.2430079288820495e-06  1.0859511705058773e-06  9.3543148647649970e-07  7.9234989044088419e-07  6.5764671865974890e-07  5.3230265407577818e-07  4.1733976114908710e-07  3.1382257979929033e-07  2.2285908884289731e-07  1.4560226714154556e-07  8.3249504494012970e-08  3.7050170335629565e-08  8.2828023659079334e-09  -1.6541948681594260e-09  -1.5500992449694510e-07  7.7537733759460683e-07  3.5331659731114924e-06  8.0717864512587995e-06  1.4346183713789594e-05  2.2310062788191501e-05  3.1916640391010508e-05  4.3118457839082004e-05  5.5867446222602019e-05  7.0114924746782716e-05  8.5811617758303546e-05  1.0290766756149071e-04  1.2135264917696670e-04  1.4109558541306440e-04  1.6208496270572536e-04  1.8426874762430279e-04  2.0759440409051327e-04  2.3200891131806798e-04  2.5745878249147517e-04  2.8389008419993963e-04  3.1124845664334171e-04  3.3947913462734606e-04  3.6852696936506802e-04  3.9833645110301746e-04  4.2885173258930053e-04  4.6001665340244515e-04  4.9177476515944801e-04  5.2406935762204640e-04  5.5684348572046809e-04  5.9003999751426736e-04  6.2360156311025460e-04  6.5747070455773502e-04  6.9158982674176288e-04  7.2590124929532412e-04  7.6034723955181749e-04  7.9487004655951160e-04  8.2941193618013499e-04  8.6391522729388189e-04  8.9832232913377493e-04  9.3257577977251744e-04  9.6661828578537478e-04  1.0003927631131665e-03  1.0338423791496972e-03  1.0669105960782218e-03  1.0995412154824816e-03  1.1316784242577319e-03  1.1632668418476392e-03  1.1942515688336736e-03  1.2245782369039884e-03  1.2541930602289052e-03  1.2830428882708556e-03  1.3110752600571224e-03  1.3382384599438045e-03  1.3644815749003980e-03  1.3897545533449692e-03  1.4140082655589540e-03  1.4371945657132624e-03  1.4592663555366772e-03  1.4801776496573308e-03  1.4998836426502841e-03  1.5183407778235180e-03  1.5355068177752152e-03  1.5513409167563870e-03  1.5658036948731047e-03  1.5788573141628254e-03  1.5904655565800437e-03  1.6005939039277597e-03  1.6092096197709359e-03  1.6162818333684034e-03  1.6217816256619071e-03  1.6256821173596277e-03  1.6279585591534539e-03  1.6285884241094009e-03  1.6275515022711544e-03  1.6248299975174087e-03  1.6204086267145330e-03  1.6142747212065044e-03  1.6064183306842546e-03  1.5968323294785335e-03  1.5855125253198480e-03  1.5724577706100508e-03  1.5576700762510796e-03  1.5411547280771774e-03  1.5229204059367747e-03  1.5029793054720201e-03  1.4813472626444169e-03  1.4580438810544930e-03  1.4330926621068290e-03  1.4065211380693179e-03  1.3783610080791635e-03  1.3486482771474756e-03  1.3174233982143129e-03  1.2847314173094319e-03  1.2506221218720396e-03  1.2151501922856853e-03  1.1783753566836667e-03  1.1403625490826108e-03  1.1011820709022379e-03  1.0609097559292719e-03  1.0196271387858057e-03  9.7742162696295336e-04  9.3438667648037751e-04  8.9062197123476186e-04  8.4623360610094238e-04  8.0133427384886016e-04  7.5604345594239741e-04  7.1048761728674309e-04  6.6480040499032470e-04  6.1912285121072598e-04  5.7360358015346390e-04  5.2839901929352482e-04  4.8367361489170900e-04  4.3960005187797095e-04  3.9635947817498007e-04  3.5414173353694357e-04  3.1314558297843313e-04  2.7357895487458366e-04  2.3565918379205104e-04  1.9961325819971160e-04  1.6567807287992133e-04  1.3410068708750631e-04  1.0513858493945822e-04  7.9059951545358692e-05  5.6143914875529766e-05  3.6680940340675336e-05  2.0972680803292744e-05  9.3338844748010983e-06  2.0866492211904102e-06  -4.1673392879092671e-07  -3.0210640685341580e-07  1.5111707284959803e-06  6.8859596062116100e-06  1.5731498610986384e-05  2.7959977744597635e-05  4.3481170474608645e-05  6.2203898573797239e-05  8.4035667495319615e-05  1.0888279339187777e-04  1.3665039988393016e-04  1.6724245124333798e-04  2.0056177737147221e-04  2.3651010256300591e-04  2.7498807487932582e-04  3.1589529701967558e-04  3.5913035849007447e-04  4.0459086916218485e-04  4.5217349423669432e-04  5.0177399064735783e-04  5.5328724493664938e-04  6.0660731263616837e-04  6.6162745918501924e-04  7.1824020242016210e-04  7.7633735667318490e-04  8.3581007850863241e-04  8.9654891413961627e-04  9.5844384855703541e-04  1.0213843564093363e-03  1.0852594546703765e-03  1.1499577571337473e-03  1.2153675307722562e-03  1.2813767540022566e-03  1.3478731768929730e-03  1.4147443833617010e-03  1.4818778553965216e-03  1.5491610393487841e-03  1.6164814143383936e-03  1.6837265628155058e-03  1.7507842433232899e-03  1.8175424655068743e-03  1.8838895674142047e-03  1.9497142951359948e-03  2.0149058848318172e-03  2.0793541471908795e-03  2.1429495543765849e-03  2.2055833295045804e-03  2.2671475387051831e-03  2.3275351858217780e-03  2.3866403097974310e-03  2.4443580848030246e-03  2.5005849231613114e-03  2.5552185811214818e-03  2.6081582675404618e-03  2.6593047555278529e-03  2.7085604971119350e-03  2.7558297409856938e-03  2.8010186533925317e-03  2.8440354422121484e-03  2.8847904843083217e-03  2.9231964562009718e-03  2.9591684681263553e-03  2.9926242015499162e-03  3.0234840501972646e-03  3.0516712646703865e-03  3.0771121007163922e-03  3.0997359712180133e-03  3.1194756019757462e-03  3.1362671913526415e-03  3.1500505738537555e-03  3.1607693877140569e-03  3.1683712465689004e-03  3.1728079152827451e-03  3.1740354900135432e-03  3.1720145825899545e-03  3.1667105092815571e-03  3.1580934840422514e-03  3.1461388163086974e-03  3.1308271134367241e-03  3.1121444878606480e-03  3.0900827690606100e-03  3.0646397204252538e-03  3.0358192610983733e-03  3.0036316928990039e-03  2.9680939324061377e-03  2.9292297483010563e-03  2.8870700040607997e-03  2.8416529060984424e-03  2.7930242574473953e-03  2.7412377170876021e-03  2.6863550650142363e-03  2.6284464731500738e-03  2.5675907822042378e-03  2.5038757845825751e-03  2.4373985134558203e-03  2.3682655380924209e-03  2.2965932655672847e-03  2.2225082489559342e-03  2.1461475021275268e-03  2.0676588212517545e-03  1.9872011131351823e-03  1.9049447305053483e-03  1.8210718143626956e-03  1.7357766435219157e-03  1.6492659914656498e-03  1.5617594906366635e-03  1.4734900042953495e-03  1.3847040060714004e-03  1.2956619673414457e-03  1.2066387525651338e-03  1.1179240227145778e-03  1.0298226469350232e-03  9.4265512257486598e-04  8.5675800372671143e-04  7.7248433842271209e-04  6.9020411462988743e-04  6.1030471519048961e-04  5.3319138186725724e-04  4.5928768860863887e-04  3.8903602432405562e-04  3.2289808482057847e-04  2.6135537594205592e-04  2.0490972105439054e-04  1.5408379921185328e-04  1.0942161654213804e-04  7.1489275269062243e-05  4.0874681381429133e-05  1.8191263038649997e-05  4.0667725007634337e-06  -8.1219309256190553e-07  -4.4202507800806495e-07  2.2110598879414455e-06  1.0075148247397859e-05  2.3017442731217752e-05  4.0909464700326638e-05  6.3619199775301162e-05  9.1013241108107523e-05  1.2295625588510821e-04  1.5931117117492138e-04  1.9993916920016852e-04  2.4469973589005909e-04  2.9345069742698059e-04  3.4604826233209556e-04  4.0234706444284700e-04  4.6220020808188279e-04  5.2545931512478872e-04  5.9197457410149431e-04  6.6159479135276950e-04  7.3416744429448790e-04  8.0953873683517756e-04  8.8755365699518473e-04  9.6805603677615646e-04  1.0508886143304748e-03  1.1358930984811902e-03  1.2229102356437654e-03  1.3117798792018852e-03  1.4023410613905880e-03  1.4944320677406173e-03  1.5878905141391111e-03  1.6825534265625872e-03  1.7782573235389637e-03  1.8748383013966225e-03  1.9721321223593077e-03  2.0699743055466258e-03  2.1682002209411030e-03  2.2666451863835955e-03  2.3651445676600180e-03  2.4635338817433363e-03  2.5616489032558656e-03  2.6593257742180566e-03  2.7564011171509134e-03  2.8527121516005297e-03  2.9480968141541281e-03  3.0423938820183256e-03  3.1354431002314533e-03  3.2270853125828136e-03  3.3171625963132976e-03  3.4055184006726142e-03  3.4919976894100639e-03  3.5764470872763437e-03  3.6587150306160643e-03  3.7386519221313413e-03  3.8161102898981079e-03  3.8909449507186738e-03  3.9630131778945026e-03  4.0321748735057238e-03  4.0982927452842049e-03  4.1612324881690425e-03  4.2208629706345984e-03  4.2770564258826117e-03  4.3296886479915024e-03  4.3786391931173079e-03  4.4237915858425046e-03  4.4650335307699247e-03  4.5022571294616757e-03  4.5353591028228181e-03  4.5642410190330392e-03  4.5888095271299058e-03  4.6089765963491774e-03  4.6246597613298886e-03  4.6357823732929076e-03  4.6422738573038457e-03  4.6440699757326846e-03  4.6411130980245231e-03  4.6333524768974290e-03  4.6207445310852075e-03  4.6032531347448419e-03  4.5808499136503721e-03  4.5535145482964411e-03  4.5212350840370761e-03  4.4840082483870490e-03  4.4418397756152460e-03  4.3947447387614400e-03  4.3427478892097459e-03  4.2858840039542928e-03  4.2241982406948141e-03  4.1577465009016287e-03  4.0865958009919778e-03  4.0108246517619210e-03  3.9305234462196663e-03  3.8457948559692192e-03  3.7567542362949261e-03  3.6635300400998131e-03  3.5662642408535836e-03  3.4651127647078207e-03  3.3602459319383190e-03  3.2518489078778674e-03  3.1401221635038155e-03  3.0252819458485695e-03  2.9075607584029134e-03  2.7872078516850418e-03  2.6644897241505107e-03  2.5396906336211879e-03  2.4131131194138379e-03  2.2850785353517580e-03  2.1559275938455502e-03  2.0260209212319825e-03  1.8957396245628997e-03  1.7654858700386596e-03  1.6356834732836371e-03  1.5067785016644694e-03  1.3792398888543987e-03  1.2535600618505597e-03  1.1302555806532450e-03  1.0098677908212661e-03  8.9296348911500813e-04  7.8013560246114114e-04  6.7200388040781535e-04  5.6921560149415437e-04  4.7244629302423228e-04  3.8240046723211918e-04  2.9981236380598913e-04  2.2544673730251784e-04  1.6009954685168489e-04  1.0459908134676086e-04  5.9805531721949376e-05  2.6616431512461194e-05  5.9502724641665568e-06  -1.1883551873402014e-06  -5.7488050820778524e-07  2.8756179098461322e-06  1.3103343308526474e-05  2.9935584771513371e-05  5.3205248016569904e-05  8.2740640312705768e-05  1.1836825793649778e-04  1.5991209232788292e-04  2.0719387179721595e-04  2.6003305537627633e-04  3.1824689596404710e-04  3.8165048785791182e-04  4.5005682148857926e-04  5.2327683931497682e-04  6.0111949456919322e-04  6.8339181247091963e-04  7.6989895408683306e-04  8.6044428286267266e-04  9.5482943389671253e-04  1.0528543860135930e-03  1.1543175367015558e-03  1.2590157799763297e-03  1.3667445872362705e-03  1.4772980911744193e-03  1.5904691728142921e-03  1.7060495517373887e-03  1.8238298795714750e-03  1.9435998368100135e-03  2.0651482330343285e-03  2.1882631106110700e-03  2.3127318519392099e-03  2.4383412903215321e-03  2.5648778245374068e-03  2.6921275371945136e-03  2.8198763169386709e-03  2.9479099846022741e-03  3.0760144233731388e-03  3.2039757130670164e-03  3.3315802685882911e-03  3.4586149826648883e-03  3.5848673729449161e-03  3.7101257335438484e-03  3.8341792911327638e-03  3.9568183656593352e-03  4.0778345357951684e-03  4.1970208092042749e-03  4.3141717977295503e-03  4.4290838975947653e-03  4.5415554747223743e-03  4.6513870552682976e-03  4.7583815214764513e-03  4.8623443129583045e-03  4.9630836335033297e-03  5.0604106635287636e-03  5.1541397782784602e-03  5.2440887718828797e-03  5.3300790873932876e-03  5.4119360529056963e-03  5.4894891238917200e-03  5.5625721318558145e-03  5.6310235394390253e-03  5.6946867020933756e-03  5.7534101364507539e-03  5.8070477955141061e-03  5.8554593507991401e-03  5.8985104815582690e-03  5.9360731712195525e-03  5.9680260111755964e-03  5.9942545120605902e-03  6.0146514226541506e-03  6.0291170565544986e-03  6.0375596267644160e-03  6.0398955883364178e-03  6.0360499892262720e-03  6.0259568295049585e-03  6.0095594290827063e-03  5.9868108041012747e-03  5.9576740521518580e-03  5.9221227464798252e-03  5.8801413393390041e-03  5.8317255746613596e-03  5.7768829102107797e-03  5.7156329493907648e-03  5.6480078828803140e-03  5.5740529402745122e-03  5.4938268519074502e-03  5.4074023210406962e-03  5.3148665066007359e-03  5.2163215166530956e-03  5.1118849128033578e-03  5.0016902257181165e-03  4.8858874819622091e-03  4.7646437423507857e-03  4.6381436520189449e-03  4.5065900024136869e-03  4.3702043054168992e-03  4.2292273798104586e-03  4.0839199502987842e-03  3.9345632593061524e-03  3.7814596917705198e-03  3.6249334131584097e-03  3.4653310209286480e-03  3.3030222096771633e-03  3.1384004501965111e-03  2.9718836826901616e-03  2.8039150243827017e-03  2.6349634917716405e-03  2.4655247377707743e-03  2.2961218039981718e-03  2.1273058884652227e-03  1.9596571289281287e-03  1.7937854021662601e-03  1.6303311394559748e-03  1.4699661585126748e-03  1.3133945121783671e-03  1.1613533541312521e-03  1.0146138219204769e-03  8.7398193754592893e-04  7.4029952613529108e-04  6.1444515205356573e-04  4.9733507633070348e-04  3.8992422235939792e-04  2.9320719997561379e-04  2.0821920246158853e-04  1.3603746992370906e-04  7.7780733012931390e-05  3.4616288702274281e-05  7.7386913871175939e-06  -1.5455282276063550e-06  -7.0078881046350139e-07  3.5054256049500043e-06  1.5973191371058517e-05  3.6491971044950991e-05  6.4858073948647764e-05  1.0086220381670213e-04  1.4429285675198345e-04  1.9493547541896752e-04  2.5257274368913882e-04  3.1698457914563648e-04  3.8794821005926132e-04  4.6523823332992269e-04  5.4862668120951282e-04  6.3788308943875036e-04  7.3277456885826307e-04  8.3306588003002023e-04  9.3851951108295836e-04  1.0488957588167117e-03  1.1639528131470536e-03  1.2834468449651325e-03  1.4071320974871427e-03  1.5347609811716901e-03  1.6660841722835320e-03  1.8008507151837266e-03  1.9388081284276975e-03  2.0797025147540095e-03  2.2232786750481532e-03  2.3692802263670020e-03  2.5174497241112230e-03  2.6675287884342274e-03  2.8192582349779722e-03  2.9723782100271844e-03  3.1266283301753747e-03  3.2817478265975615e-03  3.4374756940260334e-03  3.5935508445273496e-03  3.7497122661803817e-03  3.9056991867565836e-03  4.0612512425059191e-03  4.2161086521530985e-03  4.3700123962107287e-03  4.5227044017178602e-03  4.6739277325141236e-03  4.8234267851611778e-03  4.9709474906258645e-03  5.1162375218404017e-03  5.2590465072570539e-03  5.3991262505179854e-03  5.5362309563604210e-03  5.6701174628815071e-03  5.8005454802886637e-03  5.9272778362623292e-03  6.0500807280614074e-03  6.1687239815030812e-03  6.2829813169508909e-03  6.3926306224473565e-03  6.4974542341295167e-03  6.5972392240680154e-03  6.6917776956725034e-03  6.7808670868084982e-03  6.8643104807735071e-03  6.9419169252821662e-03  7.0135017596124278e-03  7.0788869500680749e-03  7.1379014339142286e-03  7.1903814719459962e-03  7.2361710098522870e-03  7.2751220485399275e-03  7.3070950235848984e-03  7.3319591939818409e-03  7.3495930403637754e-03  7.3598846728677994e-03  7.3627322488256097e-03  7.3580444004592467e-03  7.3457406727665230e-03  7.3257519717829823e-03  7.2980210234097993e-03  7.2625028430010445e-03  7.2191652159056367e-03  7.1679891891629575e-03  7.1089695745541106e-03  7.0421154632140243e-03  6.9674507520122121e-03  6.8850146819147504e-03  6.7948623885407096e-03  6.6970654651328223e-03  6.5917125381624682e-03  6.4789098557947299e-03  6.3587818894416288e-03  6.2314719486352456e-03  6.0971428094563030e-03  5.9559773567574859e-03  5.8081792404235085e-03  5.6539735459150350e-03  5.4936074793464681e-03  5.3273510673507007e-03  5.1554978719908096e-03  4.9783657209773171e-03  4.7962974534600652e-03  4.6096616816617411e-03  4.4188535686286974e-03  4.2242956223761492e-03  4.0264385067101220e-03  3.8257618690128265e-03  3.6227751852819473e-03  3.4180186227187842e-03  3.2120639201657399e-03  3.0055152866958527e-03  2.7990103186638980e-03  2.5932209355324014e-03  2.3888543347897325e-03  2.1866539662833005e-03  1.9874005262960439e-03  1.7919129716969181e-03  1.6010495545052564e-03  1.4157088772047452e-03  1.2368309691774431e-03  1.0653983845254995e-03  9.0243732195320918e-04  7.4901876590044967e-04  6.0625965366242263e-04  4.7532405259147404e-04  3.5742440846802938e-04  2.5382263896199671e-04  1.6583191751429188e-04  9.4815995222188019e-05  4.2197826327168423e-05  9.4335923134880970e-06  -1.8840243758033234e-06  -8.1986568408484423e-07  4.1010617144404074e-06  1.8687329587825631e-05  4.2692626326971458e-05  7.5878650475827723e-05  1.1800054249667299e-04  1.6881086010124343e-04  2.2805858872646594e-04  2.9548948624593763e-04  3.7084607420131445e-04  4.5386772785817390e-04  5.4429074399296826e-04  6.4184841895344462e-04  7.4627112837326781e-04  8.5728641095116434e-04  9.7461905575196405e-04  1.0979911932796082e-03  1.2271223903619235e-03  1.3617297489448724e-03  1.5015280088806584e-03  1.6462296547994520e-03  1.7955450271548410e-03  1.9491824375354075e-03  2.1068482883358367e-03  2.2682471968829615e-03  2.4330821241136244e-03  2.6010545079029608e-03  2.7718644011434199e-03  2.9452106146764371e-03  3.1207908651806268e-03  3.2983019281219157e-03  3.4774397958729246e-03  3.6578998411108355e-03  3.8393769856046585e-03  4.0215658745047086e-03  4.2041610562490979e-03  4.3868571682040471e-03  4.5693491281565482e-03  4.7513323317799347e-03  4.9325028561953872e-03  5.1125576697536564e-03  5.2911948481639973e-03  5.4681137970994664e-03  5.6430154814089330e-03  5.8156026610699770e-03  5.9855801340172087e-03  6.1526549859841915e-03  6.3165368474986426e-03  6.4769381581735548e-03  6.6335744384379714e-03  6.7861645688551565e-03  6.9344310771774021e-03  7.0781004332885573e-03  7.2169033521892250e-03  7.3505751051813062e-03  7.47