<?xml version="1.0"?>
<VTKFile type="UnstructuredGrid"  version="0.1"  >
<UnstructuredGrid>
<Piece  NumberOfPoints="16641" NumberOfCells="16384">
<Points>
<DataArray  type="Float64"  NumberOfComponents="3"  format="ascii">0 0 0  0.0078125 0 0  0.015625 0 0  0.0234375 0 0  0.03125 0 0  0.0390625 0 0  0.046875 0 0  0.0546875 0 0  0.0625 0 0  0.0703125 0 0  0.078125 0 0  0.0859375 0 0  0.09375 0 0  0.1015625 0 0  0.109375 0 0  0.1171875 0 0  0.125 0 0  0.1328125 0 0  0.140625 0 0  0.1484375 0 0  0.15625 0 0  0.1640625 0 0  0.171875 0 0  0.1796875 0 0  0.1875 0 0  0.1953125 0 0  0.203125 0 0  0.2109375 0 0  0.21875 0 0  0.2265625 0 0  0.234375 0 0  0.2421875 0 0  0.25 0 0  0.2578125 0 0  0.265625 0 0  0.2734375 0 0  0.28125 0 0  0.2890625 0 0  0.296875 0 0  0.3046875 0 0  0.3125 0 0  0.3203125 0 0  0.328125 0 0  0.3359375 0 0  0.34375 0 0  0.3515625 0 0  0.359375 0 0  0.3671875 0 0  0.375 0 0  0.3828125 0 0  0.390625 0 0  0.3984375 0 0  0.40625 0 0  0.4140625 0 0  0.421875 0 0  0.4296875 0 0  0.4375 0 0  0.4453125 0 0  0.453125 0 0  0.4609375 0 0  0.46875 0 0  0.4765625 0 0  0.484375 0 0  0.4921875 0 0  0.5 0 0  0.5078125 0 0  0.515625 0 0  0.5234375 0 0  0.53125 0 0  0.5390625 0 0  0.546875 0 0  0.5546875 0 0  0.5625 0 0  0.5703125 0 0  0.578125 0 0  0.5859375 0 0  0.59375 0 0  0.6015625 0 0  0.609375 0 0  0.6171875 0 0  0.625 0 0  0.6328125 0 0  0.640625 0 0  0.6484375 0 0  0.65625 0 0  0.6640625 0 0  0.671875 0 0  0.6796875 0 0  0.6875 0 0  0.6953125 0 0  0.703125 0 0  0.7109375 0 0  0.71875 0 0  0.7265625 0 0  0.734375 0 0  0.7421875 0 0  0.75 0 0  0.7578125 0 0  0.765625 0 0  0.7734375 0 0  0.78125 0 0  0.7890625 0 0  0.796875 0 0  0.8046875 0 0  0.8125 0 0  0.8203125 0 0  0.828125 0 0  0.8359375 0 0  0.84375 0 0  0.8515625 0 0  0.859375 0 0  0.8671875 0 0  0.875 0 0  0.8828125 0 0  0.890625 0 0  0.8984375 0 0  0.90625 0 0  0.9140625 0 0  0.921875 0 0  0.9296875 0 0  0.9375 0 0  0.9453125 0 0  0.953125 0 0  0.9609375 0 0  0.96875 0 0  0.9765625 0 0  0.984375 0 0  0.9921875 0 0  1 0 0  0 0.0078125 0  0.0078125 0.0078125 0  0.015625 0.0078125 0  0.0234375 0.0078125 0  0.03125 0.0078125 0  0.0390625 0.0078125 0  0.046875 0.0078125 0  0.0546875 0.0078125 0  0.0625 0.0078125 0  0.0703125 0.0078125 0  0.078125 0.0078125 0  0.0859375 0.0078125 0  0.09375 0.0078125 0  0.1015625 0.0078125 0  0.109375 0.0078125 0  0.1171875 0.0078125 0  0.125 0.0078125 0  0.1328125 0.0078125 0  0.140625 0.0078125 0  0.1484375 0.0078125 0  0.15625 0.0078125 0  0.1640625 0.0078125 0  0.171875 0.0078125 0  0.1796875 0.0078125 0  0.1875 0.0078125 0  0.1953125 0.0078125 0  0.203125 0.0078125 0  0.2109375 0.0078125 0  0.21875 0.0078125 0  0.2265625 0.0078125 0  0.234375 0.0078125 0  0.2421875 0.0078125 0  0.25 0.0078125 0  0.2578125 0.0078125 0  0.265625 0.0078125 0  0.2734375 0.0078125 0  0.28125 0.0078125 0  0.2890625 0.0078125 0  0.296875 0.0078125 0  0.3046875 0.0078125 0  0.3125 0.0078125 0  0.3203125 0.0078125 0  0.328125 0.0078125 0  0.3359375 0.0078125 0  0.34375 0.0078125 0  0.3515625 0.0078125 0  0.359375 0.0078125 0  0.3671875 0.0078125 0  0.375 0.0078125 0  0.3828125 0.0078125 0  0.390625 0.0078125 0  0.3984375 0.0078125 0  0.40625 0.0078125 0  0.4140625 0.0078125 0  0.421875 0.0078125 0  0.4296875 0.0078125 0  0.4375 0.0078125 0  0.4453125 0.0078125 0  0.453125 0.0078125 0  0.4609375 0.0078125 0  0.46875 0.0078125 0  0.4765625 0.0078125 0  0.484375 0.0078125 0  0.4921875 0.0078125 0  0.5 0.0078125 0  0.5078125 0.0078125 0  0.515625 0.0078125 0  0.5234375 0.0078125 0  0.53125 0.0078125 0  0.5390625 0.0078125 0  0.546875 0.0078125 0  0.5546875 0.0078125 0  0.5625 0.0078125 0  0.5703125 0.0078125 0  0.578125 0.0078125 0  0.5859375 0.0078125 0  0.59375 0.0078125 0  0.6015625 0.0078125 0  0.609375 0.0078125 0  0.6171875 0.0078125 0  0.625 0.0078125 0  0.6328125 0.0078125 0  0.640625 0.0078125 0  0.6484375 0.0078125 0  0.65625 0.0078125 0  0.6640625 0.0078125 0  0.671875 0.0078125 0  0.6796875 0.0078125 0  0.6875 0.0078125 0  0.6953125 0.0078125 0  0.703125 0.0078125 0  0.7109375 0.0078125 0  0.71875 0.0078125 0  0.7265625 0.0078125 0  0.734375 0.0078125 0  0.7421875 0.0078125 0  0.75 0.0078125 0  0.7578125 0.0078125 0  0.765625 0.0078125 0  0.7734375 0.0078125 0  0.78125 0.0078125 0  0.7890625 0.0078125 0  0.796875 0.0078125 0  0.8046875 0.0078125 0  0.8125 0.0078125 0  0.8203125 0.0078125 0  0.828125 0.0078125 0  0.8359375 0.0078125 0  0.84375 0.0078125 0  0.8515625 0.0078125 0  0.859375 0.0078125 0  0.8671875 0.0078125 0  0.875 0.0078125 0  0.8828125 0.0078125 0  0.890625 0.0078125 0  0.8984375 0.0078125 0  0.90625 0.0078125 0  0.9140625 0.0078125 0  0.921875 0.0078125 0  0.9296875 0.0078125 0  0.9375 0.0078125 0  0.9453125 0.0078125 0  0.953125 0.0078125 0  0.9609375 0.0078125 0  0.96875 0.0078125 0  0.9765625 0.0078125 0  0.984375 0.0078125 0  0.9921875 0.0078125 0  1 0.0078125 0  0 0.015625 0  0.0078125 0.015625 0  0.015625 0.015625 0  0.0234375 0.015625 0  0.03125 0.015625 0  0.0390625 0.015625 0  0.046875 0.015625 0  0.0546875 0.015625 0  0.0625 0.015625 0  0.0703125 0.015625 0  0.078125 0.015625 0  0.0859375 0.015625 0  0.09375 0.015625 0  0.1015625 0.015625 0  0.109375 0.015625 0  0.1171875 0.015625 0  0.125 0.015625 0  0.1328125 0.015625 0  0.140625 0.015625 0  0.1484375 0.015625 0  0.15625 0.015625 0  0.1640625 0.015625 0  0.171875 0.015625 0  0.1796875 0.015625 0  0.1875 0.015625 0  0.1953125 0.015625 0  0.203125 0.015625 0  0.2109375 0.015625 0  0.21875 0.015625 0  0.2265625 0.015625 0  0.234375 0.015625 0  0.2421875 0.015625 0  0.25 0.015625 0  0.2578125 0.015625 0  0.265625 0.015625 0  0.2734375 0.015625 0  0.28125 0.015625 0  0.2890625 0.015625 0  0.296875 0.015625 0  0.3046875 0.015625 0  0.3125 0.015625 0  0.3203125 0.015625 0  0.328125 0.015625 0  0.3359375 0.015625 0  0.34375 0.015625 0  0.3515625 0.015625 0  0.359375 0.015625 0  0.3671875 0.015625 0  0.375 0.015625 0  0.3828125 0.015625 0  0.390625 0.015625 0  0.3984375 0.015625 0  0.40625 0.015625 0  0.4140625 0.015625 0  0.421875 0.015625 0  0.4296875 0.015625 0  0.4375 0.015625 0  0.4453125 0.015625 0  0.453125 0.015625 0  0.4609375 0.015625 0  0.46875 0.015625 0  0.4765625 0.015625 0  0.484375 0.015625 0  0.4921875 0.015625 0  0.5 0.015625 0  0.5078125 0.015625 0  0.515625 0.015625 0  0.5234375 0.015625 0  0.53125 0.015625 0  0.5390625 0.015625 0  0.546875 0.015625 0  0.5546875 0.015625 0  0.5625 0.015625 0  0.5703125 0.015625 0  0.578125 0.015625 0  0.5859375 0.015625 0  0.59375 0.015625 0  0.6015625 0.015625 0  0.609375 0.015625 0  0.6171875 0.015625 0  0.625 0.015625 0  0.6328125 0.015625 0  0.640625 0.015625 0  0.6484375 0.015625 0  0.65625 0.015625 0  0.6640625 0.015625 0  0.671875 0.015625 0  0.6796875 0.015625 0  0.6875 0.015625 0  0.6953125 0.015625 0  0.703125 0.015625 0  0.7109375 0.015625 0  0.71875 0.015625 0  0.7265625 0.015625 0  0.734375 0.015625 0  0.7421875 0.015625 0  0.75 0.015625 0  0.7578125 0.015625 0  0.765625 0.015625 0  0.7734375 0.015625 0  0.78125 0.015625 0  0.7890625 0.015625 0  0.796875 0.015625 0  0.8046875 0.015625 0  0.8125 0.015625 0  0.8203125 0.015625 0  0.828125 0.015625 0  0.8359375 0.015625 0  0.84375 0.015625 0  0.8515625 0.015625 0  0.859375 0.015625 0  0.8671875 0.015625 0  0.875 0.015625 0  0.8828125 0.015625 0  0.890625 0.015625 0  0.8984375 0.015625 0  0.90625 0.015625 0  0.9140625 0.015625 0  0.921875 0.015625 0  0.9296875 0.015625 0  0.9375 0.015625 0  0.9453125 0.015625 0  0.953125 0.015625 0  0.9609375 0.015625 0  0.96875 0.015625 0  0.9765625 0.015625 0  0.984375 0.015625 0  0.9921875 0.015625 0  1 0.015625 0  0 0.0234375 0  0.0078125 0.0234375 0  0.015625 0.0234375 0  0.0234375 0.0234375 0  0.03125 0.0234375 0  0.0390625 0.0234375 0  0.046875 0.0234375 0  0.0546875 0.0234375 0  0.0625 0.0234375 0  0.0703125 0.0234375 0  0.078125 0.0234375 0  0.0859375 0.0234375 0  0.09375 0.0234375 0  0.1015625 0.0234375 0  0.109375 0.0234375 0  0.1171875 0.0234375 0  0.125 0.0234375 0  0.1328125 0.0234375 0  0.140625 0.0234375 0  0.1484375 0.0234375 0  0.15625 0.0234375 0  0.1640625 0.0234375 0  0.171875 0.0234375 0  0.1796875 0.0234375 0  0.1875 0.0234375 0  0.1953125 0.0234375 0  0.203125 0.0234375 0  0.2109375 0.0234375 0  0.21875 0.0234375 0  0.2265625 0.0234375 0  0.234375 0.0234375 0  0.2421875 0.0234375 0  0.25 0.0234375 0  0.2578125 0.0234375 0  0.265625 0.0234375 0  0.2734375 0.0234375 0  0.28125 0.0234375 0  0.2890625 0.0234375 0  0.296875 0.0234375 0  0.3046875 0.0234375 0  0.3125 0.0234375 0  0.3203125 0.0234375 0  0.328125 0.0234375 0  0.3359375 0.0234375 0  0.34375 0.0234375 0  0.3515625 0.0234375 0  0.359375 0.0234375 0  0.3671875 0.0234375 0  0.375 0.0234375 0  0.3828125 0.0234375 0  0.390625 0.0234375 0  0.3984375 0.0234375 0  0.40625 0.0234375 0  0.4140625 0.0234375 0  0.421875 0.0234375 0  0.4296875 0.0234375 0  0.4375 0.0234375 0  0.4453125 0.0234375 0  0.453125 0.0234375 0  0.4609375 0.0234375 0  0.46875 0.0234375 0  0.4765625 0.0234375 0  0.484375 0.0234375 0  0.4921875 0.0234375 0  0.5 0.0234375 0  0.5078125 0.0234375 0  0.515625 0.0234375 0  0.5234375 0.0234375 0  0.53125 0.0234375 0  0.5390625 0.0234375 0  0.546875 0.0234375 0  0.5546875 0.0234375 0  0.5625 0.0234375 0  0.5703125 0.0234375 0  0.578125 0.0234375 0  0.5859375 0.0234375 0  0.59375 0.0234375 0  0.6015625 0.0234375 0  0.609375 0.0234375 0  0.6171875 0.0234375 0  0.625 0.0234375 0  0.6328125 0.0234375 0  0.640625 0.0234375 0  0.6484375 0.0234375 0  0.65625 0.0234375 0  0.6640625 0.0234375 0  0.671875 0.0234375 0  0.6796875 0.0234375 0  0.6875 0.0234375 0  0.6953125 0.0234375 0  0.703125 0.0234375 0  0.7109375 0.0234375 0  0.71875 0.0234375 0  0.7265625 0.0234375 0  0.734375 0.0234375 0  0.7421875 0.0234375 0  0.75 0.0234375 0  0.7578125 0.0234375 0  0.765625 0.0234375 0  0.7734375 0.0234375 0  0.78125 0.0234375 0  0.7890625 0.0234375 0  0.796875 0.0234375 0  0.8046875 0.0234375 0  0.8125 0.0234375 0  0.8203125 0.0234375 0  0.828125 0.0234375 0  0.8359375 0.0234375 0  0.84375 0.0234375 0  0.8515625 0.0234375 0  0.859375 0.0234375 0  0.8671
[...]
<PointData  Scalars="v_sol"> 
<DataArray  type="Float64"  Name="v_sol"  format="ascii">3.0818347392865251e-10  1.5568074674198361e-07  3.0731302270096177e-07  4.5514635481787718e-07  5.9912578925104401e-07  7.3919649085051830e-07  8.7530476394282796e-07  1.0073978407047093e-06  1.1354240010808496e-06  1.2593326053169176e-06  1.3790741513973749e-06  1.4946003273444863e-06  1.6058640664553061e-06  1.7128196033409591e-06  1.8154225313772631e-06  1.9136298614258742e-06  2.0074000818942934e-06  2.0966932201492702e-06  2.1814709053039709e-06  2.2616964324124687e-06  2.3373348280844456e-06  2.4083529175534093e-06  2.4747193932194257e-06  2.5364048846969386e-06  2.5933820303838629e-06  2.6456255505923774e-06  2.6931123222475523e-06  2.7358214552129095e-06  2.7737343702280752e-06  2.8068348785270015e-06  2.8351092631406613e-06  2.8585463619212870e-06  2.8771376523143523e-06  2.8908773379097714e-06  2.8997624367979112e-06  2.9037928717754131e-06  2.9029715624142440e-06  2.8973045190317271e-06  2.8868009385958706e-06  2.8714733025977447e-06  2.8513374769145374e-06  2.8264128137276135e-06  2.7967222554750603e-06  2.7622924409064907e-06  2.7231538133271454e-06  2.6793407309407534e-06  2.6308915794151094e-06  2.5778488867318121e-06  2.5202594402719739e-06  2.4581744062377902e-06  2.3916494514047484e-06  2.3207448673291116e-06  2.2455256968549836e-06  2.1660618632894377e-06  2.0824283019323523e-06  1.9947050941392600e-06  1.9029776041725083e-06  1.8073366184777167e-06  1.7078784877215945e-06  1.6047052715992106e-06  1.4979248863210132e-06  1.3876512549379573e-06  1.2740044605673326e-06  1.1571109024607227e-06  1.0371034550452584e-06  9.1412162990081071e-07  7.8831174094689226e-07  6.5982707249584151e-07  5.2882805058487617e-07  3.9548241750195895e-07  2.5996540942649304e-07  1.2245993755071365e-07  -1.6843227669252643e-08  -1.5774526865500534e-07  -3.0003912961836703e-07  -4.4350932172294014e-07  -5.8793172495788691e-07  -7.3307338618498028e-07  -8.7869231362592878e-07  -1.0245372675653406e-06  -1.1703475473515310e-06  -1.3158527744487853e-06  -1.4607726716558376e-06  -1.6048168383794051e-06  -1.7476845217857686e-06  -1.8890643839551818e-06  -2.0286342649125871e-06  -2.1660609412403655e-06  -2.3009998808027853e-06  -2.4330949925894092e-06  -2.5619783727177906e-06  -2.6872700455016931e-06  -2.8085777002594641e-06  -2.9254964233191125e-06  -3.0376084254510771e-06  -3.1444827645695507e-06  -3.2456750634178786e-06  -3.3407272225550729e-06  -3.4291671283033787e-06  -3.5105083555644662e-06  -3.5842498655562663e-06  -3.6498756984426452e-06  -3.7068546604694124e-06  -3.7546400058580890e-06  -3.7926691133516904e-06  -3.8203631569925351e-06  -3.8371267714524180e-06  -3.8423477117101173e-06  -3.8353965067239933e-06  -3.8156261075095635e-06  -3.7823715290767576e-06  -3.7349494863850033e-06  -3.6726580241371924e-06  -3.5947761404288500e-06  -3.5005634039743080e-06  -3.3892595649538910e-06  -3.2600841594192849e-06  -3.1122361070211028e-06  -2.9448933019573053e-06  -2.7572121977217497e-06  -2.5483273826042930e-06  -2.3173511568834006e-06  -2.0633730705759023e-06  -1.7854595746645882e-06  -1.4826532142374163e-06  -1.1539734974477026e-06  -7.9841147146198982e-07  -4.1494775706227880e-07  -2.4829748419411768e-09  -1.5423173687448752e-09  -7.7911157400250228e-07  -1.5379623890209753e-06  -2.2778012114729462e-06  -2.9983530228848538e-06  -3.6993433982618077e-06  -4.3805036149424618e-06  -5.0415695940209816e-06  -5.6822825000214946e-06  -6.3023889039810464e-06  -6.9016410707486020e-06  -7.4797972207977200e-06  -8.0366218066187262e-06  -8.5718857931978089e-06  -9.0853669455095768e-06  -9.5768501224098774e-06  -1.0046127577195276e-05  -1.0492999264949128e-05  -1.0917273156778235e-05  -1.1318765561057536e-05  -1.1697301451816737e-05  -1.2052714804367912e-05  -1.2384848938367987e-05  -1.2693556868326688e-05  -1.2978701661813604e-05  -1.3240156805435617e-05  -1.3477806578669594e-05  -1.3691546435821083e-05  -1.3881283396102080e-05  -1.4046936442041365e-05  -1.4188436926418000e-05  -1.4305728987706278e-05  -1.4398769974359786e-05  -1.4467530877948839e-05  -1.4511996775347409e-05  -1.4532167280143284e-05  -1.4528057003455123e-05  -1.4499696024169262e-05  -1.4447130368916318e-05  -1.4370422501856502e-05  -1.4269651824533134e-05  -1.4144915185746641e-05  -1.3996327402053591e-05  -1.3824021788233305e-05  -1.3628150699241032e-05  -1.3408886082273914e-05  -1.3166420040222643e-05  -1.2900965406273729e-05  -1.2612756330086021e-05  -1.2302048875300862e-05  -1.1969121628876198e-05  -1.1614276322676669e-05  -1.1237838466717890e-05  -1.0840157995386905e-05  -1.0421609925909072e-05  -9.9825950292097055e-06  -9.5235405146593048e-06  -9.0449007273190470e-06  -8.5471578585711919e-06  -8.0308226709913383e-06  -7.4964352362779406e-06  -6.9445656876303375e-06  -6.3758149867561073e-06  -5.7908157045035432e-06  -5.1902328172458138e-06  -4.5747645172447304e-06  -3.9451430393202323e-06  -3.3021355020175577e-06  -2.6465447650300176e-06  -1.9792103024144286e-06  -1.3010090919511140e-06  -6.1285652123270052e-07  8.4292690048171081e-08  7.8944354994524866e-07  1.5015598380240239e-06  2.2195631303973289e-06  2.9423318078076299e-06  3.6687000454570469e-06  4.3974567840774601e-06  5.1273446827142047e-06  5.8570590526839718e-06  6.5852467721103259e-06  7.3105051803210546e-06  8.0313809541058986e-06  8.7463689617819107e-06  9.4539110981359526e-06  1.0152395098414355e-05  1.0840153330458252e-05  1.1515461567081155e-05  1.2176537734102072e-05  1.2821540639353782e-05  1.3448568676693183e-05  1.4055658508991800e-05  1.4640783726855503e-05  1.5201853484528596e-05  1.5736711112116443e-05  1.6243132703081129e-05  1.6718825677142788e-05  1.7161427319465217e-05  1.7568503292967728e-05  1.7937546125510254e-05  1.8265973672165062e-05  1.8551127548932115e-05  1.8790271541046011e-05  1.8980589984156874e-05  1.9119186116816628e-05  1.9203080405311328e-05  1.9229208841026969e-05  1.9194421206705124e-05  1.9095479315391915e-05  1.8929055218872644e-05  1.8691729385078256e-05  1.8379988846062963e-05  1.7990225314061668e-05  1.7518733266191084e-05  1.6961707996623644e-05  1.6315243637119711e-05  1.5575331143598103e-05  1.4737856249151480e-05  1.3798597385725533e-05  1.2753223560163369e-05  1.1597292237129038e-05  1.0326247028021393e-05  8.9354159411521366e-06  7.4200073518778126e-06  5.7751143370952614e-06  3.9956875522931364e-06  2.0766254597087314e-06  1.2426159820955418e-08  -6.9631169977949963e-09  -3.5174641372785244e-06  -6.9434568096139642e-06  -1.0283615823279606e-05  -1.3536699542807132e-05  -1.6701469015455957e-05  -1.9776711036440072e-05  -2.2761233365137145e-05  -2.5653867434409498e-05  -2.8453469085553641e-05  -3.1158919866018618e-05  -3.3769128211036570e-05  -3.6283030691642226e-05  -3.8699593280883049e-05  -4.1017812651801128e-05  -4.3236717504240189e-05  -4.5355369921813899e-05  -4.7372866759488272e-05  -4.9288341062249819e-05  -5.1100963515448554e-05  -5.2809943927353397e-05  -5.4414532744468147e-05  -5.5914022600262035e-05  -5.7307749897721236e-05  -5.8595096426485337e-05  -5.9775491015096762e-05  -6.0848411218871811e-05  -6.1813385044202495e-05  -6.2669992709686419e-05  -6.3417868444959195e-05  -6.4056702327606023e-05  -6.4586242159068251e-05  -6.5006295379965720e-05  -6.5316731025636803e-05  -6.5517481722562464e-05  -6.5608545726330918e-05  -6.5589989001972208e-05  -6.5461947346976313e-05  -6.5224628558435563e-05  -6.4878314644108617e-05  -6.4423364079007017e-05  -6.3860214107811831e-05  -6.3189383093833939e-05  -6.2411472915403272e-05  -6.1527171410974399e-05  -6.0537254872568017e-05  -5.9442590589408688e-05  -5.8244139442200320e-05  -5.6942958549054670e-05  -5.5540203963358444e-05  -5.4037133425209660e-05  -5.2435109166685032e-05  -5.0735600771969297e-05  -4.8940188093937672e-05  -4.7050564226846145e-05  -4.5068538536272532e-05  -4.2996039749326104e-05  -4.0835119102714519e-05  -3.8587953551902235e-05  -3.6256849042181836e-05  -3.3844243841682682e-05  -3.1352711937720624e-05  -2.8784966498545405e-05  -2.6143863399638101e-05  -2.3432404817001971e-05  -2.0653742887873623e-05  -1.7811183441005051e-05  -1.4908189795524378e-05  -1.1948386631149180e-05  -8.9355639313306878e-06  -5.8736809977071842e-06  -2.7668705411014922e-06  3.8055715394306770e-07  3.5641099864181796e-06  6.7791097194425699e-06  1.0020687580375603e-05  1.3283779781930250e-05  1.6563122961103909e-05  1.9853249534517481e-05  2.3148482970783988e-05  2.6442932976588881e-05  2.9730490596310275e-05  3.3004823222535690e-05  3.6259369519265304e-05  3.9487334250910265e-05  4.2681683022098434e-05  4.5835136921809005e-05  4.8940167072442600e-05  5.1988989084079956e-05  5.4973557406778019e-05  5.7885559587730109e-05  6.0716410424051020e-05  6.3457246013763667e-05  6.6098917702835872e-05  6.8631985925648550e-05  7.1046713938740019e-05  7.3333061444752170e-05  7.5480678105401111e-05  7.7478896943313370e-05  7.9316727627956515e-05  8.0982849646353739e-05  8.2465605357051668e-05  8.3752992922676080e-05  8.4832659122721331e-05  8.5691892043519472e-05  8.6317613641825484e-05  8.6696372182641705e-05  8.6814334548791311e-05  8.6657278418171527e-05  8.6210584310281749e-05  8.5459227497284394e-05  8.4387769778300215e-05  8.2980351115599616e-05  8.1220681130106810e-05  7.9092030453960989e-05  7.6577221937926881e-05  7.3658621712446639e-05  7.0318130099713852e-05  6.6537172370806447e-05  6.2296689363436046e-05  5.7577127891331505e-05  5.2358431190459907e-05  4.6620028475282107e-05  4.0340827059067469e-05  3.3499194120021400e-05  2.6072976346660919e-05  1.8039377359213418e-05  9.3753652335108266e-06  5.6100530431939902e-08  -1.5776189622677053e-08  -7.9694477973640759e-06  -1.5731650569181706e-05  -2.3299381755542690e-05  -3.0669828200083513e-05  -3.7840182828015880e-05  -4.4807696904769996e-05  -5.1569669194256324e-05  -5.8123452097539092e-05  -6.4466453317420713e-05  -7.0596138798706455e-05  -7.6510035405292045e-05  -8.2205733747774728e-05  -8.7680891052311093e-05  -9.2933234101396050e-05  -9.7960562239965486e-05  -1.0276075044991006e-04  -1.0733175249383954e-04  -1.1167160412936435e-04  -1.1577842639509022e-04  -1.1965042896962539e-04  -1.2328591360482769e-04  -1.2668327763466666e-04  -1.2984101756085162e-04  -1.3275773271670364e-04  -1.3543212901060667e-04  -1.3786302275027929e-04  -1.4004934454931944e-04  -1.4199014331757142e-04  -1.4368459033653201e-04  -1.4513198342129378e-04  -1.4633175117071811e-04  -1.4728345730690833e-04  -1.4798680510592238e-04  -1.4844164192096004e-04  -1.4864796379983594e-04  -1.4860592019817247e-04  -1.4831581878967708e-04  -1.4777813037601681e-04  -1.4699349389655014e-04  -1.4596272154090154e-04  -1.4468680396554910e-04  -1.4316691561575698e-04  -1.4140442015535458e-04  -1.3940087600597745e-04  -1.3715804199677885e-04  -1.3467788312754262e-04  -1.3196257644651808e-04  -1.2901451704481448e-04  -1.2583632416937420e-04  -1.2243084745663685e-04  -1.1880117328831091e-04  -1.1495063127202301e-04  -1.1088280084852812e-04  -1.0660151802715437e-04  -1.0211088225159549e-04  -9.7415263399825051e-05  -9.2519308917573284e-05  -8.7427951089236923e-05  -8.2146414448554912e-05  -7.6680223330513063e-05  -7.1035209566661618e-05  -6.5217520327575564e-05  -5.9233626112788481e-05  -5.3090328892147249e-05  -4.6794770399770067e-05  -4.0354440585207972e-05  -3.3777186220814355e-05  -2.7071219670728038e-05  -2.0245127823832136e-05  -1.3307881190518770e-05  -6.2688431702316725e-06  8.6222051178039226e-07  8.0751321929957108e-06  1.5359292485833147e-05  2.2703670310465025e-05  3.0096792745896726e-05  3.7526734696283940e-05  4.4981108368003687e-05  5.2447052558226842e-05  5.9911221747757102e-05  6.7359774998591767e-05  7.4778364649802563e-05  8.2152124813827671e-05  8.9465659662233622e-05  9.6703031506754642e-05  1.0384774866470919e-04  1.1088275310992761e-04  1.1779040790556940e-04  1.2455248441159647e-04  1.3115014927008394e-04  1.3756395115923714e-04  1.4377380731420893e-04  1.4975898981300283e-04  1.5549811162151103e-04  1.6096911239503922e-04  1.6614924403328808e-04  1.7101505598278590e-04  1.7554238028653424e-04  1.7970631637305551e-04  1.8348121558354888e-04  1.8684066543304866e-04  1.8975747359958086e-04  1.9220365163955845e-04  1.9415039842491568e-04  1.9556808329552659e-04  1.9642622892580689e-04  1.9669349389924817e-04  1.9633765498667068e-04  1.9532558912465966e-04  1.9362325508895788e-04  1.9119567485812076e-04  1.8800691466347761e-04  1.8402006572047853e-04  1.7919722463649682e-04  1.7349947349022495e-04  1.6688685957778803e-04  1.5931837482311789e-04  1.5075193483659311e-04  1.4114435765738724e-04  1.3045134202418988e-04  1.1862744573032450e-04  1.0562606195882763e-04  9.1399401435587039e-05  7.5898451104242310e-05  5.9073018665345780e-05  4.0871454800933590e-05  2.1241576577692568e-05  1.2710583525380441e-07  -2.7814969166679224e-08  -1.4050920448202543e-05  -2.7736447569774421e-05  -4.1079102168909418e-05  -5.4073924364759224e-05  -6.6715965002573781e-05  -7.9000377790848297e-05  -9.0922400183596569e-05  -1.0247736420329300e-04  -1.1366069937506020e-04  -1.2446793791059257e-04  -1.3489471942795841e-04  -1.4493679593697469e-04  -1.5459003689722103e-04  -1.6385043440296038e-04  -1.7271410848311859e-04  -1.8117731252202462e-04  -1.8923643880214045e-04  -1.9688802417115706e-04  -2.0412875583552387e-04  -2.1095547728274135e-04  -2.1736519433448000e-04  -2.2335508133304176e-04  -2.2892248746322579e-04  -2.3406494321205241e-04  -2.3878016696885681e-04  -2.4306607176780731e-04  -2.4692077217560457e-04  -2.5034259132687009e-04  -2.5333006810943797e-04  -2.5588196450234253e-04  -2.5799727306920092e-04  -2.5967522460921307e-04  -2.6091529596893081e-04  -2.6171721801705289e-04  -2.6208098378552888e-04  -2.6200685677924538e-04  -2.6149537945737382e-04  -2.6054738188939443e-04  -2.5916399058828444e-04  -2.5734663752423830e-04  -2.5509706932197928e-04  -2.5241735664402411e-04  -2.4930990376392472e-04  -2.4577745833209838e-04  -2.4182312133741679e-04  -2.3745035726777030e-04  -2.3266300447327459e-04  -2.2746528573526999e-04  -2.2186181904359720e-04  -2.1585762858757106e-04  -2.0945815596180411e-04  -2.0266927159211915e-04  -1.9549728638457127e-04  -1.8794896360077172e-04  -1.8003153096355368e-04  -1.7175269299751135e-04  -1.6312064360652479e-04  -1.5414407889329773e-04  -1.4483221022473864e-04  -1.3519477754670033e-04  -1.2524206295207640e-04  -1.1498490450711678e-04  -1.0443471033900528e-04  -9.3603472989621595e-05  -8.2503784038932932e-05  -7.1148849004559327e-05  -5.9552502517915214e-05  -4.7729223784980296e-05  -3.5694152335096591e-05  -2.3463104060782495e-05  -1.1052587556045706e-05  1.5201792450565641e-06  1.4237252122168928e-05  2.7079943312548055e-05  4.0028803937556043e-05  5.3063606109008459e-05  6.6163324709751922e-05  7.9306118841376440e-05  9.2469312938164882e-05  1.0562937753713045e-04  1.1876190970267638e-04  1.3184161309785534e-04  1.4484227769983598e-04  1.5773675914902932e-04  1.7049695773289591e-04  1.8309379699242993e-04  1.9549720194947588e-04  2.0767607694874475e-04  2.1959828310482891e-04  2.3123061535466441e-04  2.4253877910375979e-04  2.5348736646189473e-04  2.6403983206285453e-04  2.7415846846111364e-04  2.8380438109833049e-04  2.9293746283514679e-04  3.0151636803840291e-04  3.0949848622170110e-04  3.1683991522716317e-04  3.2349543394569489e-04  3.2941847456701508e-04  3.3456109435189141e-04  3.3887394692052507e-04  3.4230625304992781e-04  3.4480577097095185e-04  3.4631876616003318e-04  3.4678998061606899e-04  3.4616260161573765e-04  3.4437822993962133e-04  3.4137684756023148e-04  3.3709678478480707e-04  3.3147468684426734e-04  3.2444547992063424e-04  3.1594233660411106e-04  3.0589664077122812e-04  2.9423795187510313e-04  2.8089396864375754e-04  2.6579049215859585e-04  2.4885138837509496e-04  2.2999854981119709e-04  2.0915185738665888e-04  1.8622913869693436e-04  1.6114613655192852e-04  1.3381643610759668e-04  1.0415154341149493e-04  7.2060395627752928e-05  3.7450989142585055e-05  2.2410008143708198e-07  -4.2913292038701229e-08  -2.1677943308398268e-05  -4.2792153070959187e-05  -6.3377374651481035e-05  -8.3425955870403007e-05  -1.0293026110048987e-04  -1.2188281341686984e-04  -1.4027626509983658e-04  -1.5810341433221067e-04  -1.7535720972565748e-04  -1.9203075831832159e-04  -2.0811733285643568e-04  -2.2361037948575099e-04  -2.3850352555508552e-04  -2.5279058761564860e-04  -2.6646557959788321e-04  -2.7952272117469357e-04  -2.9195644631280866e-04  -3.0376141201604936e-04  -3.1493250726367152e-04  -3.2546486214734470e-04  -3.3535385720999281e-04  -3.4459513299037192e-04  -3.5318459977643396e-04  -3.6111844757161113e-04  -3.6839315627743360e-04  -3.7500550609593407e-04  -3.8095258815625140e-04  -3.8623181536870881e-04  -3.9084093351052300e-04  -3.9477803254695101e-04  -3.9804155819200506e-04  -4.0063032371274879e-04  -4.0254352198122609e-04  -4.0378073777817158e-04  -4.0434196035318127e-04  -4.0422759624502699e-04  -4.0343848236671986e-04  -4.0197589936024014e-04  -3.9984158522441576e-04  -3.9703774922145098e-04  -3.9356708606667868e-04  -3.8943279040511223e-04  -3.8463857158127257e-04  -3.7918866870600228e-04  -3.7308786602515944e-04  -3.6634150859583527e-04  -3.5895551827459950e-04  -3.5093641002337895e-04  -3.4229130853714060e-04  -3.3302796520053642e-04  -3.2315477537665885e-04  -3.1268079603508737e-04  -3.0161576372379696e-04  -2.8997011289096596e-04  -2.7775499456171636e-04  -2.6498229537702002e-04  -2.5166465699857416e-04  -2.3781549588712392e-04  -2.2344902345953889e-04  -2.0858026663126615e-04  -1.9322508874938124e-04  -1.7740021092371461e-04  -1.6112323376171509e-04  -1.4441265951311072e-04  -1.2728791463199432e-04  -1.0976937276280482e-04  -9.1878378155257396e-05  -7.3637269517041822e-05  -5.5069404311282273e-05  -3.6199183503143687e-05  -1.7052076766395065e-05  2.3453518458158415e-06  2.1965417756536403e-05  4.1779289241863548e-05  6.1756960318510743e-05  8.1867223137072507e-05  1.0207763987267254e-04  1.2235451410277454e-04  1.4266286166904994e-04  1.6296638100931000e-04  1.8322742295624143e-04  2.0340695999174389e-04  2.2346455495047231e-04  2.4335832916071493e-04  2.6304493001938283e-04  2.8247949798617202e-04  3.0161563299255679e-04  3.2040536025536618e-04  3.3879909548320379e-04  3.5674560947116305e-04  3.7419199207097334e-04  3.9108361552741709e-04  4.0736409717205226e-04  4.2297526146559394e-04  4.3785710137542216e-04  4.5194773908281661e-04  4.6518338600530024e-04  4.7749830212744023e-04  4.8882475462669675e-04  4.9909297578528376e-04  5.0823112017708079e-04  5.1616522111778106e-04  5.2281914636841185e-04  5.2811455308048017e-04  5.3197084197050340e-04  5.3430511071395721e-04  5.3503210654555911e-04  5.3406417805435306e-04  5.3131122616255236e-04  5.2668065427447321e-04  5.2007731758365271e-04  5.1140347152615808e-04  5.0055871936717543e-04  4.8743995890748455e-04  4.7194132829736382e-04  4.5395415094292814e-04  4.3336687949925817e-04  4.1006503890758677e-04  3.8393116857136748e-04  3.5484476324878638e-04  3.2268221417811272e-04  2.8731674470125024e-04  2.4861836172732603e-04  2.0645374330589049e-04  1.6068635982072641e-04  1.1117571833994722e-04  5.7779874517532788e-05  3.4574451853399054e-07  -6.0908359003062352e-08  -3.0768277068264525e-05  -6.0736427079907839e-05  -8.9953765342682659e-05  -1.1840943083447207e-04  -1.4609258603014367e-04  -1.7299261865993802e-04  -1.9909909984127335e-04  -2.2440180777748086e-04  -2.4889073418156882e-04  -2.7255609562733133e-04  -2.9538834388418469e-04  -3.1737817683379560e-04  -3.3851654954585790e-04  -3.5879468563179966e-04  -3.7820408885043622e-04  -3.9673655497816181e-04  -4.1438418394623380e-04  -4.3113939225033007e-04  -4.4699492563716277e-04  -4.6194387207279303e-04  -4.7597967499767702e-04  -4.8909614687356567e-04  -5.0128748302682340e-04  -5.1254827579395607e-04  -5.2287352897403469e-04  -5.3225867259344760e-04  -5.4069957798831406e-04  -5.4819257321033225e-04  -5.5473445876094620e-04  -5.6032252365989835e-04  -5.6495456185386595e-04  -5.6862888897048691e-04  -5.7134435942437318e-04  -5.7310038387999908e-04  -5.7389694707888413e-04  -5.7373462603595952e