<?xml version="1.0"?>
<VTKFile type="UnstructuredGrid"  version="0.1"  >
<UnstructuredGrid>
<Piece  NumberOfPoints="4225" NumberOfCells="4096">
<Points>
<DataArray  type="Float64"  NumberOfComponents="3"  format="ascii">0 0 0  0.015625 0 0  0.03125 0 0  0.046875 0 0  0.0625 0 0  0.078125 0 0  0.09375 0 0  0.109375 0 0  0.125 0 0  0.140625 0 0  0.15625 0 0  0.171875 0 0  0.1875 0 0  0.203125 0 0  0.21875 0 0  0.234375 0 0  0.25 0 0  0.265625 0 0  0.28125 0 0  0.296875 0 0  0.3125 0 0  0.328125 0 0  0.34375 0 0  0.359375 0 0  0.375 0 0  0.390625 0 0  0.40625 0 0  0.421875 0 0  0.4375 0 0  0.453125 0 0  0.46875 0 0  0.484375 0 0  0.5 0 0  0.515625 0 0  0.53125 0 0  0.546875 0 0  0.5625 0 0  0.578125 0 0  0.59375 0 0  0.609375 0 0  0.625 0 0  0.640625 0 0  0.65625 0 0  0.671875 0 0  0.6875 0 0  0.703125 0 0  0.71875 0 0  0.734375 0 0  0.75 0 0  0.765625 0 0  0.78125 0 0  0.796875 0 0  0.8125 0 0  0.828125 0 0  0.84375 0 0  0.859375 0 0  0.875 0 0  0.890625 0 0  0.90625 0 0  0.921875 0 0  0.9375 0 0  0.953125 0 0  0.96875 0 0  0.984375 0 0  1 0 0  0 0.015625 0  0.015625 0.015625 0  0.03125 0.015625 0  0.046875 0.015625 0  0.0625 0.015625 0  0.078125 0.015625 0  0.09375 0.015625 0  0.109375 0.015625 0  0.125 0.015625 0  0.140625 0.015625 0  0.15625 0.015625 0  0.171875 0.015625 0  0.1875 0.015625 0  0.203125 0.015625 0  0.21875 0.015625 0  0.234375 0.015625 0  0.25 0.015625 0  0.265625 0.015625 0  0.28125 0.015625 0  0.296875 0.015625 0  0.3125 0.015625 0  0.328125 0.015625 0  0.34375 0.015625 0  0.359375 0.015625 0  0.375 0.015625 0  0.390625 0.015625 0  0.40625 0.015625 0  0.421875 0.015625 0  0.4375 0.015625 0  0.453125 0.015625 0  0.46875 0.015625 0  0.484375 0.015625 0  0.5 0.015625 0  0.515625 0.015625 0  0.53125 0.015625 0  0.546875 0.015625 0  0.5625 0.015625 0  0.578125 0.015625 0  0.59375 0.015625 0  0.609375 0.015625 0  0.625 0.015625 0  0.640625 0.015625 0  0.65625 0.015625 0  0.671875 0.015625 0  0.6875 0.015625 0  0.703125 0.015625 0  0.71875 0.015625 0  0.734375 0.015625 0  0.75 0.015625 0  0.765625 0.015625 0  0.78125 0.015625 0  0.796875 0.015625 0  0.8125 0.015625 0  0.828125 0.015625 0  0.84375 0.015625 0  0.859375 0.015625 0  0.875 0.015625 0  0.890625 0.015625 0  0.90625 0.015625 0  0.921875 0.015625 0  0.9375 0.015625 0  0.953125 0.015625 0  0.96875 0.015625 0  0.984375 0.015625 0  1 0.015625 0  0 0.03125 0  0.015625 0.03125 0  0.03125 0.03125 0  0.046875 0.03125 0  0.0625 0.03125 0  0.078125 0.03125 0  0.09375 0.03125 0  0.109375 0.03125 0  0.125 0.03125 0  0.140625 0.03125 0  0.15625 0.03125 0  0.171875 0.03125 0  0.1875 0.03125 0  0.203125 0.03125 0  0.21875 0.03125 0  0.234375 0.03125 0  0.25 0.03125 0  0.265625 0.03125 0  0.28125 0.03125 0  0.296875 0.03125 0  0.3125 0.03125 0  0.328125 0.03125 0  0.34375 0.03125 0  0.359375 0.03125 0  0.375 0.03125 0  0.390625 0.03125 0  0.40625 0.03125 0  0.421875 0.03125 0  0.4375 0.03125 0  0.453125 0.03125 0  0.46875 0.03125 0  0.484375 0.03125 0  0.5 0.03125 0  0.515625 0.03125 0  0.53125 0.03125 0  0.546875 0.03125 0  0.5625 0.03125 0  0.578125 0.03125 0  0.59375 0.03125 0  0.609375 0.03125 0  0.625 0.03125 0  0.640625 0.03125 0  0.65625 0.03125 0  0.671875 0.03125 0  0.6875 0.03125 0  0.703125 0.03125 0  0.71875 0.03125 0  0.734375 0.03125 0  0.75 0.03125 0  0.765625 0.03125 0  0.78125 0.03125 0  0.796875 0.03125 0  0.8125 0.03125 0  0.828125 0.03125 0  0.84375 0.03125 0  0.859375 0.03125 0  0.875 0.03125 0  0.890625 0.03125 0  0.90625 0.03125 0  0.921875 0.03125 0  0.9375 0.03125 0  0.953125 0.03125 0  0.96875 0.03125 0  0.984375 0.03125 0  1 0.03125 0  0 0.046875 0  0.015625 0.046875 0  0.03125 0.046875 0  0.046875 0.046875 0  0.0625 0.046875 0  0.078125 0.046875 0  0.09375 0.046875 0  0.109375 0.046875 0  0.125 0.046875 0  0.140625 0.046875 0  0.15625 0.046875 0  0.171875 0.046875 0  0.1875 0.046875 0  0.203125 0.046875 0  0.21875 0.046875 0  0.234375 0.046875 0  0.25 0.046875 0  0.265625 0.046875 0  0.28125 0.046875 0  0.296875 0.046875 0  0.3125 0.046875 0  0.328125 0.046875 0  0.34375 0.046875 0  0.359375 0.046875 0  0.375 0.046875 0  0.390625 0.046875 0  0.40625 0.046875 0  0.421875 0.046875 0  0.4375 0.046875 0  0.453125 0.046875 0  0.46875 0.046875 0  0.484375 0.046875 0  0.5 0.046875 0  0.515625 0.046875 0  0.53125 0.046875 0  0.546875 0.046875 0  0.5625 0.046875 0  0.578125 0.046875 0  0.59375 0.046875 0  0.609375 0.046875 0  0.625 0.046875 0  0.640625 0.046875 0  0.65625 0.046875 0  0.671875 0.046875 0  0.6875 0.046875 0  0.703125 0.046875 0  0.71875 0.046875 0  0.734375 0.046875 0  0.75 0.046875 0  0.765625 0.046875 0  0.78125 0.046875 0  0.796875 0.046875 0  0.8125 0.046875 0  0.828125 0.046875 0  0.84375 0.046875 0  0.859375 0.046875 0  0.875 0.046875 0  0.890625 0.046875 0  0.90625 0.046875 0  0.921875 0.046875 0  0.9375 0.046875 0  0.953125 0.046875 0  0.96875 0.046875 0  0.984375 0.046875 0  1 0.046875 0  0 0.0625 0  0.015625 0.0625 0  0.03125 0.0625 0  0.046875 0.0625 0  0.0625 0.0625 0  0.078125 0.0625 0  0.09375 0.0625 0  0.109375 0.0625 0  0.125 0.0625 0  0.140625 0.0625 0  0.15625 0.0625 0  0.171875 0.0625 0  0.1875 0.0625 0  0.203125 0.0625 0  0.21875 0.0625 0  0.234375 0.0625 0  0.25 0.0625 0  0.265625 0.0625 0  0.28125 0.0625 0  0.296875 0.0625 0  0.3125 0.0625 0  0.328125 0.0625 0  0.34375 0.0625 0  0.359375 0.0625 0  0.375 0.0625 0  0.390625 0.0625 0  0.40625 0.0625 0  0.421875 0.0625 0  0.4375 0.0625 0  0.453125 0.0625 0  0.46875 0.0625 0  0.484375 0.0625 0  0.5 0.0625 0  0.515625 0.0625 0  0.53125 0.0625 0  0.546875 0.0625 0  0.5625 0.0625 0  0.578125 0.0625 0  0.59375 0.0625 0  0.609375 0.0625 0  0.625 0.0625 0  0.640625 0.0625 0  0.65625 0.0625 0  0.671875 0.0625 0  0.6875 0.0625 0  0.703125 0.0625 0  0.71875 0.0625 0  0.734375 0.0625 0  0.75 0.0625 0  0.765625 0.0625 0  0.78125 0.0625 0  0.796875 0.0625 0  0.8125 0.0625 0  0.828125 0.0625 0  0.84375 0.0625 0  0.859375 0.0625 0  0.875 0.0625 0  0.890625 0.0625 0  0.90625 0.0625 0  0.921875 0.0625 0  0.9375 0.0625 0  0.953125 0.0625 0  0.96875 0.0625 0  0.984375 0.0625 0  1 0.0625 0  0 0.078125 0  0.015625 0.078125 0  0.03125 0.078125 0  0.046875 0.078125 0  0.0625 0.078125 0  0.078125 0.078125 0  0.09375 0.078125 0  0.109375 0.078125 0  0.125 0.078125 0  0.140625 0.078125 0  0.15625 0.078125 0  0.171875 0.078125 0  0.1875 0.078125 0  0.203125 0.078125 0  0.21875 0.078125 0  0.234375 0.078125 0  0.25 0.078125 0  0.265625 0.078125 0  0.28125 0.078125 0  0.296875 0.078125 0  0.3125 0.078125 0  0.328125 0.078125 0  0.34375 0.078125 0  0.359375 0.078125 0  0.375 0.078125 0  0.390625 0.078125 0  0.40625 0.078125 0  0.421875 0.078125 0  0.4375 0.078125 0  0.453125 0.078125 0  0.46875 0.078125 0  0.484375 0.078125 0  0.5 0.078125 0  0.515625 0.078125 0  0.53125 0.078125 0  0.546875 0.078125 0  0.5625 0.078125 0  0.578125 0.078125 0  0.59375 0.078125 0  0.609375 0.078125 0  0.625 0.078125 0  0.640625 0.078125 0  0.65625 0.078125 0  0.671875 0.078125 0  0.6875 0.078125 0  0.703125 0.078125 0  0.71875 0.078125 0  0.734375 0.078125 0  0.75 0.078125 0  0.765625 0.078125 0  0.78125 0.078125 0  0.796875 0.078125 0  0.8125 0.078125 0  0.828125 0.078125 0  0.84375 0.078125 0  0.859375 0.078125 0  0.875 0.078125 0  0.890625 0.078125 0  0.90625 0.078125 0  0.921875 0.078125 0  0.9375 0.078125 0  0.953125 0.078125 0  0.96875 0.078125 0  0.984375 0.078125 0  1 0.078125 0  0 0.09375 0  0.015625 0.09375 0  0.03125 0.09375 0  0.046875 0.09375 0  0.0625 0.09375 0  0.078125 0.09375 0  0.09375 0.09375 0  0.109375 0.09375 0  0.125 0.09375 0  0.140625 0.09375 0  0.15625 0.09375 0  0.171875 0.09375 0  0.1875 0.09375 0  0.203125 0.09375 0  0.21875 0.09375 0  0.234375 0.09375 0  0.25 0.09375 0  0.265625 0.09375 0  0.28125 0.09375 0  0.296875 0.09375 0  0.3125 0.09375 0  0.328125 0.09375 0  0.34375 0.09375 0  0.359375 0.09375 0  0.375 0.09375 0  0.390625 0.09375 0  0.40625 0.09375 0  0.421875 0.09375 0  0.4375 0.09375 0  0.453125 0.09375 0  0.46875 0.09375 0  0.484375 0.09375 0  0.5 0.09375 0  0.515625 0.09375 0  0.53125 0.09375 0  0.546875 0.09375 0  0.5625 0.09375 0  0.578125 0.09375 0  0.59375 0.09375 0  0.609375 0.09375 0  0.625 0.09375 0  0.640625 0.09375 0  0.65625 0.09375 0  0.671875 0.09375 0  0.6875 0.09375 0  0.703125 0.09375 0  0.71875 0.09375 0  0.734375 0.09375 0  0.75 0.09375 0  0.765625 0.09375 0  0.78125 0.09375 0  0.796875 0.09375 0  0.8125 0.09375 0  0.828125 0.09375 0  0.84375 0.09375 0  0.859375 0.09375 0  0.875 0.09375 0  0.890625 0.09375 0  0.90625 0.09375 0  0.921875 0.09375 0  0.9375 0.09375 0  0.953125 0.09375 0  0.96875 0.09375 0  0.984375 0.09375 0  1 0.09375 0  0 0.109375 0  0.015625 0.109375 0  0.03125 0.109375 0  0.046875 0.109375 0  0.0625 0.109375 0  0.078125 0.109375 0  0.09375 0.109375 0  0.109375 0.109375 0  0.125 0.109375 0  0.140625 0.109375 0  0.15625 0.109375 0  0.171875 0.109375 0  0.1875 0.109375 0  0.203125 0.109375 0  0.21875 0.109375 0  0.234375 0.109375 0  0.25 0.109375 0  0.265625 0.109375 0  0.28125 0.109375 0  0.296875 0.109375 0  0.3125 0.109375 0  0.328125 0.109375 0  0.34375 0.109375 0  0.359375 0.109375 0  0.375 0.109375 0  0.390625 0.109375 0  0.40625 0.109375 0  0.421875 0.109375 0  0.4375 0.109375 0  0.453125 0.109375 0  0.46875 0.109375 0  0.484375 0.109375 0  0.5 0.109375 0  0.515625 0.109375 0  0.53125 0.109375 0  0.546875 0.109375 0  0.5625 0.109375 0  0.578125 0.109375 0  0.59375 0.109375 0  0.609375 0.109375 0  0.625 0.109375 0  0.640625 0.109375 0  0.65625 0.109375 0  0.671875 0.109375 0  0.6875 0.109375 0  0.703125 0.109375 0  0.71875 0.109375 0  0.734375 0.109375 0  0.75 0.109375 0  0.765625 0.109375 0  0.78125 0.109375 0  0.796875 0.109375 0  0.8125 0.109375 0  0.828125 0.109375 0  0.84375 0.109375 0  0.859375 0.109375 0  0.875 0.109375 0  0.890625 0.109375 0  0.90625 0.109375 0  0.921875 0.109375 0  0.9375 0.109375 0  0.953125 0.109375 0  0.96875 0.109375 0  0.984375 0.109375 0  1 0.109375 0  0 0.125 0  0.015625 0.125 0  0.03125 0.125 0  0.046875 0.125 0  0.0625 0.125 0  0.078125 0.125 0  0.09375 0.125 0  0.109375 0.125 0  0.125 0.12
[...]
<PointData  Scalars="u_sol"> 
<DataArray  type="Float64"  Name="u_sol"  format="ascii">-9.7561237785798433e-09  4.8820690153640512e-08  2.2028460155804947e-07  4.9861591575124401e-07  8.7790770896995109e-07  1.3520218540315918e-06  1.9146892998542098e-06  2.5594921136361487e-06  3.2798780638690595e-06  4.0691673470467140e-06  4.9205623486049342e-06  5.8271575455341461e-06  6.7819503785395429e-06  7.7778529113360456e-06  8.8077043752238825e-06  9.8642846189813246e-06  1.0940328509235707e-05  1.2028541319917701e-05  1.3121615153894642e-05  1.4212246439923634e-05  1.5293154550164537e-05  1.6357101584677759e-05  1.7396913371272164e-05  1.8405501730357531e-05  1.9375888056033566e-05  2.0301228267061389e-05  2.1174839182119435e-05  2.1990226376234365e-05  2.2741113577211314e-05  2.3421473662147073e-05  2.4025561316938007e-05  2.4547947423054947e-05  2.4983555238134822e-05  2.5327698439520449e-05  2.5576121101363933e-05  2.5725039678658442e-05  2.5771187073954852e-05  2.5711858864692705e-05  2.5544961771611680e-05  2.5269064451165936e-05  2.4883450698255320e-05  2.4388175146599197e-05  2.3784121559082378e-05  2.3073063801286117e-05  2.2257729595263118e-05  2.1341867154269243e-05  2.0330314800449322e-05  1.9229073672587933e-05  1.8045383632879534e-05  1.6787802486972703e-05  1.5466288630776381e-05  1.4092287248958536e-05  1.2678820180733103e-05  1.1240579593458147e-05  9.7940255751046237e-06  8.3574878021397456e-06  6.9512714446416969e-06  5.5977671759791930e-06  4.3215668195392215e-06  3.1495789759280313e-06  2.1111675981173278e-06  1.2382266171801086e-06  5.6551876965814156e-07  1.3005053441157313e-07  -2.5929395341209475e-08  -1.2090522901545604e-06  6.0502257893370958e-06  2.7299327596345149e-05  6.1792246226567856e-05  1.0879695144967930e-04  1.6755275928303828e-04  2.3728276062090351e-04  3.1719159678182619e-04  4.0646726519364822e-04  5.0428195420199062e-04  6.0979325188345449e-04  7.2214537373655862e-04  8.4047050974129318e-04  9.6389026941849946e-04  1.0915172363512402e-03  1.2224566350394791e-03  1.3558081154638863e-03  1.4906676602763531e-03  1.6261296198748327e-03  1.7612888807541360e-03  1.8952431727189364e-03  2.0270955207313986e-03  2.1559568473609792e-03  2.2809487320040742e-03  2.4012063332471026e-03  2.5158814809590154e-03  2.6241459449177496e-03  2.7251948869995942e-03  2.8182505041923953e-03  2.9025658699310393e-03  2.9774289814996700e-03  3.0421670214963187e-03  3.0961508416159776e-03  3.1387996772747713e-03  3.1695861018726946e-03  3.1880412297753745e-03  3.1937601773858707e-03  3.1864077919765703e-03  3.1657246582591585e-03  3.1315333929872063e-03  3.0837452382105617e-03  3.0223669641368236e-03  2.9475080928981013e-03  2.8593884548749550e-03  2.7583460895948073e-03  2.6448455035945808e-03  2.5194862980214270e-03  2.3830121791421754e-03  2.2363203653379383e-03  2.0804714045750041e-03  1.9166994167820535e-03  1.7464227759737649e-03  1.5712552475222105e-03  1.3930175960549843e-03  1.2137496813585127e-03  1.0357230549237551e-03  8.6145408965480571e-04  6.9371760380373656e-04  5.3556120859238928e-04  3.9031961157694645e-04  2.6163182878804938e-04  1.5345038384000111e-04  7.0083334528836381e-05  1.6116842614390960e-05  -3.2133644399451146e-06  -2.2939950566659088e-06  1.1479394336226876e-05  5.1796372442336422e-05  1.1724150330840823e-04  2.0642586953925781e-04  3.1790618752836048e-04  4.5020838892519723e-04  6.0182340010223306e-04  7.7121056815061058e-04  9.5679924481564804e-04  1.1569910800302149e-03  1.3701623512764685e-03  1.5946665194262613e-03  1.8288369705240499e-03  2.0709899652564920e-03  2.3194278015581148e-03  2.5724422005520857e-03  2.8283179251567922e-03  3.0853366413341231e-03  3.3417810322084029e-03  3.5959391756559727e-03  3.8461091963172310e-03  4.0906042033539659e-03  4.3277575256538249e-03  4.5559282565751395e-03  4.7735071207282249e-03  4.9789226757030527e-03  5.1706478620802705e-03  5.3472069155014361e-03  5.5071826550266581e-03  5.6492241624719218e-03  5.7720548678980950e-03  5.8744810569155452e-03  5.9554008159745870e-03  6.0138134323345438e-03  6.0488292659393152e-03  6.0596801109800884e-03  6.0457300654924492e-03  6.0064869279202486e-03  5.9416141401781022e-03  5.8509432973612840e-03  5.7344872448887819e-03  5.5924537845160917e-03  5.4252600113267038e-03  5.2335473045015471e-03  5.0181969953739256e-03  4.7803467370088433e-03  4.5214076002932022e-03  4.2430819222965795e-03  3.9473819334492318e-03  3.6366491909151240e-03  3.3135748463167677e-03  2.9812207770344911e-03  2.6430416104464951e-03  2.3029076740885670e-03  1.9651288956941183e-03  1.6344797148628121e-03  1.3162249323722085e-03  1.0161469327395313e-03  7.4057282248788064e-04  4.9640708798131823e-04  2.9114904873820443e-04  1.3297259734435692e-04  3.0579287235098594e-05  -6.0968761937783152e-06  -3.2684141453280803e-06  1.6355490696422563e-05  7.3797890741546994e-05  1.6704211611600733e-04  2.9410927969930709e-04  4.5294303502918092e-04  6.4144317446931790e-04  8.5745961593556674e-04  1.0987972841546539e-03  1.3632183674071817e-03  1.6484455852847242e-03  1.9521655074920860e-03  2.2720321953301286e-03  2.6056711081031600e-03  2.9506833054321903e-03  3.3046499532377238e-03  3.6651371479236769e-03  4.0297010720566403e-03  4.3958934957532879e-03  4.7612676383507885e-03  5.1233844054619886e-03  5.4798190170198529e-03  5.8281680424428980e-03  6.1660568595948177e-03  6.4911475547680415e-03  6.8011472814947975e-03  7.0938170965800795e-03  7.3669812923580491e-03  7.6185372447994584e-03  7.8464657977415520e-03  8.0488422041739838e-03  8.2238476461969773e-03  8.3697813559690283e-03  8.4850733606836645e-03  8.5682978753575754e-03  8.6181873679771048e-03  8.6336473223352136e-03  8.6137717247013780e-03  8.5578593012968426e-03  8.4654305344046745e-03  8.3362454858231846e-03  8.1703224572755688e-03  7.9679575183196384e-03  7.7297449332577629e-03  7.4565985195293085e-03  7.1497739710802777e-03  6.8108921812433500e-03  6.4419636007286172e-03  6.0454136674264521e-03  5.6241093458450136e-03  5.1813868151889880e-03  4.7210803461963926e-03  4.2475524083687164e-03  3.7657250494349684e-03  3.2811125940345152e-03  2.7998556957636480e-03  2.3287568305501677e-03  1.8753171259684935e-03  1.4477751470920331e-03  1.0551455622920102e-03  7.0726567308572951e-04  4.1482028113056055e-04  1.8945529926014116e-04  4.3568435302349790e-05  -8.6866431542910816e-06  -4.1359559613799456e-06  2.0696761860727229e-05  9.3386215070081417e-05  2.1138044506010934e-04  3.7217530468373471e-04  5.7316862723709461e-04  8.1170274266978025e-04  1.0850568682059594e-03  1.3904532852511517e-03  1.7250601951496092e-03  2.0859958543096757e-03  2.4703327739222956e-03  2.8751023280094087e-03  3.2972996967158196e-03  3.7338891840499183e-03  4.1818099198970438e-03  4.6379819646951408e-03  5.0993128335948407e-03  5.5627044580902705e-03  6.0250606035632346e-03  6.4832947618518313e-03  6.9343385385895254e-03  7.3751505557286953e-03  7.8027258903470070e-03  8.2141060715399533e-03  8.6063896579289135e-03  8.9767434190609584e-03  9.3224141447458535e-03  9.6407411071678280e-03  9.9291692014231818e-03  1.0185262790974878e-02  1.0406720285376600e-02  1.0591389478508347e-02  1.0737283676477749e-02  1.0842598645282567e-02  1.0905730409296118e-02  1.0925293932633173e-02  1.0900142716476564e-02  1.0829389346497362e-02  1.0712427025584751e-02  1.0548952128214389e-02  1.0338987813928911e-02  1.0082908738581522e-02  9.7814669032037227e-03  9.4358186816021639e-03  9.0475530690690906e-03  8.6187211959055186e-03  8.1518671508070701e-03  7.6500601605551813e-03  7.1169281738751875e-03  6.5566928988201158e-03  5.9742063444474204e-03  5.3749889194715673e-03  4.7652691408420263e-03  4.1520250117006718e-03  3.5430271119277789e-03  2.9468835125892705e-03  2.3730863809271674e-03  1.8320610612122010e-03  1.3352150036852713e-03  8.9499664491329595e-04  5.2492687529206712e-04  2.3974280609050227e-04  5.5132894007252763e-05  -1.0992356576103802e-05  -4.9003160254498561e-06  2.4521700606937324e-05  1.1064478700819938e-04  2.5044536082033581e-04  4.4095648707917148e-04  6.7909509639065685e-04  9.6171235850912406e-04  1.2855846666881047e-03  1.6474209561383472e-03  2.0438660875565073e-03  2.4715057464588649e-03  2.9268714190439885e-03  3.4064458518474686e-03  3.9066689085956140e-03  4.4239438707086654e-03  4.9546441930938406e-03  5.4951207370154340e-03  6.0417094999741976e-03  6.5907398639052884e-03  7.1385433835470819e-03  7.6814631376228518e-03  8.2158636662311314e-03  8.7381415186316216e-03  9.2447364364236541e-03  9.7321431979504516e-03  1.0196924150621995e-02  1.0635722458734037e-02  1.1045276095272893e-02  1.1422432607132856e-02  1.1764164684138892e-02  1.2067586563260077e-02  1.2329971300422590e-02  1.2548768943381803e-02  1.2721625640197807e-02  1.2846403718969663e-02  1.2921202775631966e-02  1.2944381807795833e-02  1.2914582433826967e-02  1.2830753237603980e-02  1.2692175280679681e-02  1.2498488824889461e-02  1.2249721309804923e-02  1.1946316630828457e-02  1.1589165765154733e-02  1.1179638794302163e-02  1.0719618373430485e-02  1.0211534699220185e-02  9.6584020296887011e-03  9.0638568109687786e-03  8.4321974677542891e-03  7.7684259158967038e-03  7.0782908572970095e-03  6.3683329195161203e-03  5.6459317028357634e-03  4.9193548052131114e-03  4.1978088763237201e-03  3.4914928325765660e-03  2.8116530751001990e-03  2.1706416411499930e-03  1.5819741755369024e-03  1.0603996925703681e-03  6.2193785903759413e-04  2.8404933061560307e-04  6.5321925174233888e-05  -1.3023838247868091e-05  -5.5651766973811616e-06  2.7848733853899423e-05  1.2565675097737559e-04  2.8442506146178655e-04  5.0078418521747785e-04  7.7123275092616376e-04  1.0921947041659299e-03  1.4600090685514711e-03  1.8709382571444105e-03  2.3211719150526846e-03  2.8068324834934861e-03  3.3239808507673145e-03  3.8686225526627311e-03  4.4367144239501359e-03  5.0241717537178260e-03  5.6268759577700047e-03  6.2406827928299675e-03  6.8614311351855306e-03  7.4849523479768604e-03  8.1070802619441565e-03  8.7236617953496444e-03  9.3305682396432055e-03  9.9237072383407954e-03  1.0499035487504327e-02  1.1052572187160648e-02  1.1580413273974058e-02  1.2078746466492154e-02  1.2543867155319150e-02  1.2972195171636251e-02  1.3360292468584932e-02  1.3704881751157413e-02  1.4002866091398909e-02  1.4251349566922847e-02  1.4447658961967647e-02  1.4589366571490356e-02  1.4674314150092831e-02  1.4700638048916179e-02  1.4666795585014698e-02  1.4571592689138541e-02  1.4414212879310464e-02  1.4194247609079358e-02  1.3911728040874739e-02  1.3567158296469203e-02  1.3161550238184789e-02  1.2696459836151568e-02  1.2174025178650303e-02  1.1597006184336721e-02  1.0968826076966628e-02  1.0293614685108787e-02  9.5762536312488326e-03  8.8224234766964369e-03  8.0386528906050535e-03  7.2323699139929826e-03  6.4119553900116146e-03  5.5867986404591827e-03  4.7673554466829936e-03  3.9652084846464545e-03  3.1931300347262008e-03  2.4651480229259896e-03  1.7966118577003784e-03  1.2042716569889477e-03  7.0632058965216138e-04  3.2258832263251896e-04  7.4184615167913767e-05  -1.4790874973772654e-05  -6.1342238640507676e-06  3.0696306170234225e-05  1.3850533103222060e-04  3.1350792529672404e-04  5.5199007478887413e-04  8.5009238802764028e-04  1.2038731539669586e-03  1.6092970562034531e-03  2.0622443342447204e-03  2.5585150190229945e-03  3.0938350658934652e-03  3.6638625834292332e-03  4.2641946678263357e-03  4.8903747345215255e-03  5.5379004051707764e-03  6.2022319645588381e-03  6.8788014147152209e-03  7.5630221511862779e-03  8.2502992881402521e-03  8.9360406596587314e-03  9.6156685255591508e-03  1.0284632011035116e-02  1.0938420310390979e-02  1.1572576686164003e-02  1.2182713295969580e-02  1.2764526880485311e-02  1.3313815347095264e-02  1.3826495284856502e-02  1.4298620447625367e-02  1.4726401243387904e-02  1.5106225269083244e-02  1.5434678931488014e-02  1.5708570196048745e-02  1.5924952506901454e-02  1.6081149922714786e-02  1.6174783514426753e-02  1.6203799072419856e-02  1.6166496172199653e-02  1.6061558649201106e-02  1.5888086534953164e-02  1.5645629508484638e-02  1.5334221918549700e-02  1.4954419433999444e-02  1.4507337381418045e-02  1.3994690830989883e-02  1.3418836493456975e-02  1.2782816492981450e-02  1.2090404082723110e-02  1.1346151372015740e-02  1.0555439136124554e-02  9.7245287817890793e-03  8.8606165438461851e-03  7.9718899910695088e-03  7.0675869197540505e-03  6.1580567232285511e-03  5.2548243013804579e-03  4.3706566752867212e-03  3.5196321091695171e-03  2.7172129044109711e-03  1.9803179682820991e-03  1.3274101420497971e-03  7.7854287189165286e-04  3.5557343630716545e-04  8.1770097353808390e-05  -1.6303262928612066e-05  -6.6111424678274471e-06  3.3082857398100495e-05  1.4927372989961918e-04  3.3788228235999413e-04  5.9490574648033779e-04  9.1618467396857063e-04  1.2974708968462964e-03  1.7344153642226917e-03  2.2225780158295337e-03  2.7574323468368485e-03  3.3343720176766487e-03  3.9487175671100837e-03  4.5957237779885732e-03  5.2705875788837423e-03  5.9684565442551813e-03  6.6844380088601791e-03  7.4136088257994743e-03  8.1510257950912907e-03  8.8917367915218801e-03  9.6307926212550743e-03  1.0363259637748222e-02  1.1084233148537945e-02  1.1788851645527575e-02  1.2472311892500414e-02  1.3129884904710828e-02  1.3756932856564782e-02  1.4348926954595800e-02  1.4901466314171432e-02  1.5410297879630908e-02  1.5871337428856321e-02  1.6280691704620608e-02  1.6634681716435413e-02  1.6929867258039598e-02  1.7163072687132908e-02  1.7331414015458530e-02  1.7432327358888271e-02  1.7463598798751614e-02  1.7423395707287421e-02  1.7310299591779897e-02  1.7123340513670222e-02  1.6862033140715174e-02  1.6526414492094393e-02  1.6117083438246384e-02  1.5635242019153037e-02  1.5082738646773225e-02  1.4462113259376859e-02  1.3776644497628047e-02  1.3030398974427286e-02  1.2228282712744360e-02  1.1376094827948265e-02  1.0480583533527987e-02  9.5495045513493797e-03  8.5916820106636364e-03  7.6170719204986448e-03  6.6368283104729026e-03  5.6633721090988678e-03  4.7104629375067566e-03  3.7932736054305119e-03  2.9284685647438910e-03  2.1342821202025805e-03  1.4306125470607231e-03  8.3907239052586832e-04  3.8321827100965781e-04  8.8127492496737814e-05  -1.7570795775259347e-05  -6.9996177045455660e-06  3.5026828647864545e-05  1.5804515602824617e-04  3.5773647563666145e-04  6.2986281377906141e-04  9.7002031013509028e-04  1.3737111714628427e-03  1.8363307936577493e-03  2.3531782154665205e-03  2.9194609515372726e-03  3.5303019906426907e-03  4.1807469032127753e-03  4.8657716399134925e-03  5.5802908975818516e-03  6.3191671188684434e-03  7.0772201422152018e-03  7.8492375332893972e-03  8.6299856263457632e-03  9.4142213059560786e-03  1.0196704560319403e-02  1.0972211838496147e-02  1.1735550244984756e-02  1.2481572606189277e-02  1.3205193444484268e-02  1.3901405896777038e-02  1.4565299615694718e-02  1.5192079692788085e-02  1.5777086644446429e-02  1.6315817502555480e-02  1.6803948053311753e-02  1.7237356269023743e-02  1.7612146979190738e-02  1.7924677828656244e-02  1.8171586572174984e-02  1.8349819756326668e-02  1.8456662841346796e-02  1.8489771817126827e-02  1.8447206369371003e-02  1.8327464653675931e-02  1.8129519737133899e-02  1.7852857768942632e-02  1.7497517943442838e-02  1.7064134320996526e-02  1.6553979574164480e-02  1.5969010728750982e-02  1.5311916971442021e-02  1.4586169597993194e-02  1.3796074178205719e-02  1.2946825016287132e-02  1.2044561987594104e-02  1.1096429835288781e-02  1.0110640012822733e-02  9.0965351614099924e-03  8.0646563120960642e-03  7.0268129130446220e-03  5.9961557551711829e-03  4.9872529845056543e-03  4.0161689756079743e-03  3.1005473950797553e-03  2.2596940080197706e-03  1.5146763260532200e-03  8.8837686242511816e-04  4.0573644077364455e-04  9.3305924735750514e-05  -1.8603267849045211e-05  -7.3033347023087739e-06  3.6546660690878138e-05  1.6490281633727152e-04  3.7325884464979624e-04  6.5719288407694069e-04  1.0121099885266208e-03  1.4333172031831380e-03  1.9160101277894495e-03  2.4552838239562330e-03  3.0461378579227250e-03  3.6834836024384164e-03  4.3621516526960984e-03  5.0768999632956474e-03  5.8224225771812028e-03  6.5933590157824682e-03  7.3843043477090382e-03  8.1898199684695902e-03  9.0044451209231480e-03  9.8227091882220445e-03  1.0639144791815722e-02  1.1448301728260302e-02  1.2244761779703330e-02  1.3023154434092261e-02  1.3778173552360497e-02  1.4504595021093700e-02  1.5197295430457957e-02  1.5851271818489648e-02  1.6461662524208404e-02  1.7023769193409987e-02  1.7533079982432247e-02  1.7985294006673473e-02  1.8376347082162368e-02  1.8702438810047208e-02  1.8960061055487823e-02  1.9146027874092239e-02  1.9257506940748140e-02  1.9292052537458505e-02  1.9247640158595064e-02  1.9122702793844832e-02  1.8916168951034724e-02  1.8627502482987168e-02  1.8256744284577651e-02  1.7804555928246490e-02  1.7272265308351575e-02  1.6661914366944509e-02  1.5976308975812769e-02  1.5219071051950590e-02  1.4394692986004565e-02  1.3508594465700510e-02  1.2567181778764045e-02  1.1577909682490155e-02  1.0549345929603137e-02  9.4912385434365362e-03  8.4145859359296311e-03  7.3317099734289543e-03  6.2563320665928136e-03  5.2036524809639982e-03  4.1904326327345436e-03  3.2350817564186928e-03  2.3577433043199345e-03  1.5803989183373339e-03  9.2692399583047024e-04  4.2334155569579161e-04  9.7354517305043043e-05  -1.9410473305142389e-05  -7.5259786073858265e-06  3.7660794389305850e-05  1.6992991815621019e-04  3.8463772985205120e-04  6.7722756640355467e-04  1.0429644036663260e-03  1.4770122209498910e-03  1.9744201546818690e-03  2.5301337382318883e-03  3.1390000984040803e-03  3.7957754799201231e-03  4.4951328874301274e-03  5.2316704705339979e-03  5.9999205188228221e-03  6.7943591382806923e-03  7.6094166269251133e-03  8.4394885831476016e-03  9.2789477773673034e-03  1.0122156819726802e-02  1.0963481657389088e-02  1.1797305936212836e-02  1.2618046262737192e-02  1.3420168403621681e-02  1.4198204460935027e-02  1.4946771062964272e-02  1.5660588611542490e-02  1.6334501628247032e-02  1.6963500243222841e-02  1.7542742871824994e-02  1.8067580125756169e-02  1.8533580006903156e-02  1.8936554433642654e-02  1.9272587151007381e-02  1.9538063077763766e-02  1.9729699145162191e-02  1.9844576683885329e-02  1.9880175417526579e-02  1.9834409122794914e-02  1.9705663018557681e-02  1.9492832947804895e-02  1.9195366418638712e-02  1.8813305572481318e-02  1.8347332149831454e-02  1.7798814526100024e-02  1.7169856892325617e-02  1.6463350657887250e-02  1.5683028154732086e-02  1.4833518725089489e-02  1.3920407277176628e-02  1.2950295395983006e-02  1.1930865098948551e-02  1.0870945328906242e-02  9.7805812801603480e-03  8.6711066540395548e-03  7.5552189521186754e-03  6.4470578857379005e-03  5.3622871043663206e-03  4.3181790001653965e-03  3.3337040177416435e-03  2.4296196875176292e-03  1.6285777671387590e-03  9.5518150128609894e-04  4.3624722692722057e-04  1.0032239368255657e-04  -2.0002206347194254e-05  -7.6712345610569670e-06  3.8387670580299199e-05  1.7320966870247158e-04  3.9206147144344448e-04  6.9029846934540986e-04  1.0630942493972900e-03  1.5055194527457279e-03  2.0125276611196279e-03  2.5789668535918628e-03  3.1995847033693451e-03  3.8690362475044468e-03  4.5818916764025679e-03  5.3326448806803898e-03  6.1157226198174045e-03  6.9254943853183041e-03  7.7562829766092455e-03  8.6023758237754270e-03  9.4580370883448478e-03  1.0317520575475947e-02  1.1175083491759667e-02  1.2025001084082717e-02  1.2861582196174538e-02  1.3679185780705828e-02  1.4472238406066746e-02  1.5235252798268730e-02  1.5962847459754105e-02  1.6649767408285918e-02  1.7290906080515825e-02  1.7881328446297719e-02  1.8416295381322643e-02  1.8891289347209315e-02  1.9302041429782792e-02  1.9644559787922750e-02  1.9915159567057032e-02  2.0110494333119993e-02  2.0227589084588934e-02  2.0263874902059824e-02  2.0217225296718919e-02  2.0085994321020841e-02  1.9869056506892805e-02  1.9565848698846068e-02  1.9176413851502049e-02  1.8701446863220613e-02  1.8142342519763346e-02  1.7501245624231446e-02  1.6781103391886789e-02  1.5985720190908534e-02  1.5119814712636733e-02  1.41890796574392