<?xml version="1.0"?>
<VTKFile type="UnstructuredGrid"  version="0.1"  >
<UnstructuredGrid>
<Piece  NumberOfPoints="4225" NumberOfCells="4096">
<Points>
<DataArray  type="Float64"  NumberOfComponents="3"  format="ascii">0 0 0  0.015625 0 0  0.03125 0 0  0.046875 0 0  0.0625 0 0  0.078125 0 0  0.09375 0 0  0.109375 0 0  0.125 0 0  0.140625 0 0  0.15625 0 0  0.171875 0 0  0.1875 0 0  0.203125 0 0  0.21875 0 0  0.234375 0 0  0.25 0 0  0.265625 0 0  0.28125 0 0  0.296875 0 0  0.3125 0 0  0.328125 0 0  0.34375 0 0  0.359375 0 0  0.375 0 0  0.390625 0 0  0.40625 0 0  0.421875 0 0  0.4375 0 0  0.453125 0 0  0.46875 0 0  0.484375 0 0  0.5 0 0  0.515625 0 0  0.53125 0 0  0.546875 0 0  0.5625 0 0  0.578125 0 0  0.59375 0 0  0.609375 0 0  0.625 0 0  0.640625 0 0  0.65625 0 0  0.671875 0 0  0.6875 0 0  0.703125 0 0  0.71875 0 0  0.734375 0 0  0.75 0 0  0.765625 0 0  0.78125 0 0  0.796875 0 0  0.8125 0 0  0.828125 0 0  0.84375 0 0  0.859375 0 0  0.875 0 0  0.890625 0 0  0.90625 0 0  0.921875 0 0  0.9375 0 0  0.953125 0 0  0.96875 0 0  0.984375 0 0  1 0 0  0 0.015625 0  0.015625 0.015625 0  0.03125 0.015625 0  0.046875 0.015625 0  0.0625 0.015625 0  0.078125 0.015625 0  0.09375 0.015625 0  0.109375 0.015625 0  0.125 0.015625 0  0.140625 0.015625 0  0.15625 0.015625 0  0.171875 0.015625 0  0.1875 0.015625 0  0.203125 0.015625 0  0.21875 0.015625 0  0.234375 0.015625 0  0.25 0.015625 0  0.265625 0.015625 0  0.28125 0.015625 0  0.296875 0.015625 0  0.3125 0.015625 0  0.328125 0.015625 0  0.34375 0.015625 0  0.359375 0.015625 0  0.375 0.015625 0  0.390625 0.015625 0  0.40625 0.015625 0  0.421875 0.015625 0  0.4375 0.015625 0  0.453125 0.015625 0  0.46875 0.015625 0  0.484375 0.015625 0  0.5 0.015625 0  0.515625 0.015625 0  0.53125 0.015625 0  0.546875 0.015625 0  0.5625 0.015625 0  0.578125 0.015625 0  0.59375 0.015625 0  0.609375 0.015625 0  0.625 0.015625 0  0.640625 0.015625 0  0.65625 0.015625 0  0.671875 0.015625 0  0.6875 0.015625 0  0.703125 0.015625 0  0.71875 0.015625 0  0.734375 0.015625 0  0.75 0.015625 0  0.765625 0.015625 0  0.78125 0.015625 0  0.796875 0.015625 0  0.8125 0.015625 0  0.828125 0.015625 0  0.84375 0.015625 0  0.859375 0.015625 0  0.875 0.015625 0  0.890625 0.015625 0  0.90625 0.015625 0  0.921875 0.015625 0  0.9375 0.015625 0  0.953125 0.015625 0  0.96875 0.015625 0  0.984375 0.015625 0  1 0.015625 0  0 0.03125 0  0.015625 0.03125 0  0.03125 0.03125 0  0.046875 0.03125 0  0.0625 0.03125 0  0.078125 0.03125 0  0.09375 0.03125 0  0.109375 0.03125 0  0.125 0.03125 0  0.140625 0.03125 0  0.15625 0.03125 0  0.171875 0.03125 0  0.1875 0.03125 0  0.203125 0.03125 0  0.21875 0.03125 0  0.234375 0.03125 0  0.25 0.03125 0  0.265625 0.03125 0  0.28125 0.03125 0  0.296875 0.03125 0  0.3125 0.03125 0  0.328125 0.03125 0  0.34375 0.03125 0  0.359375 0.03125 0  0.375 0.03125 0  0.390625 0.03125 0  0.40625 0.03125 0  0.421875 0.03125 0  0.4375 0.03125 0  0.453125 0.03125 0  0.46875 0.03125 0  0.484375 0.03125 0  0.5 0.03125 0  0.515625 0.03125 0  0.53125 0.03125 0  0.546875 0.03125 0  0.5625 0.03125 0  0.578125 0.03125 0  0.59375 0.03125 0  0.609375 0.03125 0  0.625 0.03125 0  0.640625 0.03125 0  0.65625 0.03125 0  0.671875 0.03125 0  0.6875 0.03125 0  0.703125 0.03125 0  0.71875 0.03125 0  0.734375 0.03125 0  0.75 0.03125 0  0.765625 0.03125 0  0.78125 0.03125 0  0.796875 0.03125 0  0.8125 0.03125 0  0.828125 0.03125 0  0.84375 0.03125 0  0.859375 0.03125 0  0.875 0.03125 0  0.890625 0.03125 0  0.90625 0.03125 0  0.921875 0.03125 0  0.9375 0.03125 0  0.953125 0.03125 0  0.96875 0.03125 0  0.984375 0.03125 0  1 0.03125 0  0 0.046875 0  0.015625 0.046875 0  0.03125 0.046875 0  0.046875 0.046875 0  0.0625 0.046875 0  0.078125 0.046875 0  0.09375 0.046875 0  0.109375 0.046875 0  0.125 0.046875 0  0.140625 0.046875 0  0.15625 0.046875 0  0.171875 0.046875 0  0.1875 0.046875 0  0.203125 0.046875 0  0.21875 0.046875 0  0.234375 0.046875 0  0.25 0.046875 0  0.265625 0.046875 0  0.28125 0.046875 0  0.296875 0.046875 0  0.3125 0.046875 0  0.328125 0.046875 0  0.34375 0.046875 0  0.359375 0.046875 0  0.375 0.046875 0  0.390625 0.046875 0  0.40625 0.046875 0  0.421875 0.046875 0  0.4375 0.046875 0  0.453125 0.046875 0  0.46875 0.046875 0  0.484375 0.046875 0  0.5 0.046875 0  0.515625 0.046875 0  0.53125 0.046875 0  0.546875 0.046875 0  0.5625 0.046875 0  0.578125 0.046875 0  0.59375 0.046875 0  0.609375 0.046875 0  0.625 0.046875 0  0.640625 0.046875 0  0.65625 0.046875 0  0.671875 0.046875 0  0.6875 0.046875 0  0.703125 0.046875 0  0.71875 0.046875 0  0.734375 0.046875 0  0.75 0.046875 0  0.765625 0.046875 0  0.78125 0.046875 0  0.796875 0.046875 0  0.8125 0.046875 0  0.828125 0.046875 0  0.84375 0.046875 0  0.859375 0.046875 0  0.875 0.046875 0  0.890625 0.046875 0  0.90625 0.046875 0  0.921875 0.046875 0  0.9375 0.046875 0  0.953125 0.046875 0  0.96875 0.046875 0  0.984375 0.046875 0  1 0.046875 0  0 0.0625 0  0.015625 0.0625 0  0.03125 0.0625 0  0.046875 0.0625 0  0.0625 0.0625 0  0.078125 0.0625 0  0.09375 0.0625 0  0.109375 0.0625 0  0.125 0.0625 0  0.140625 0.0625 0  0.15625 0.0625 0  0.171875 0.0625 0  0.1875 0.0625 0  0.203125 0.0625 0  0.21875 0.0625 0  0.234375 0.0625 0  0.25 0.0625 0  0.265625 0.0625 0  0.28125 0.0625 0  0.296875 0.0625 0  0.3125 0.0625 0  0.328125 0.0625 0  0.34375 0.0625 0  0.359375 0.0625 0  0.375 0.0625 0  0.390625 0.0625 0  0.40625 0.0625 0  0.421875 0.0625 0  0.4375 0.0625 0  0.453125 0.0625 0  0.46875 0.0625 0  0.484375 0.0625 0  0.5 0.0625 0  0.515625 0.0625 0  0.53125 0.0625 0  0.546875 0.0625 0  0.5625 0.0625 0  0.578125 0.0625 0  0.59375 0.0625 0  0.609375 0.0625 0  0.625 0.0625 0  0.640625 0.0625 0  0.65625 0.0625 0  0.671875 0.0625 0  0.6875 0.0625 0  0.703125 0.0625 0  0.71875 0.0625 0  0.734375 0.0625 0  0.75 0.0625 0  0.765625 0.0625 0  0.78125 0.0625 0  0.796875 0.0625 0  0.8125 0.0625 0  0.828125 0.0625 0  0.84375 0.0625 0  0.859375 0.0625 0  0.875 0.0625 0  0.890625 0.0625 0  0.90625 0.0625 0  0.921875 0.0625 0  0.9375 0.0625 0  0.953125 0.0625 0  0.96875 0.0625 0  0.984375 0.0625 0  1 0.0625 0  0 0.078125 0  0.015625 0.078125 0  0.03125 0.078125 0  0.046875 0.078125 0  0.0625 0.078125 0  0.078125 0.078125 0  0.09375 0.078125 0  0.109375 0.078125 0  0.125 0.078125 0  0.140625 0.078125 0  0.15625 0.078125 0  0.171875 0.078125 0  0.1875 0.078125 0  0.203125 0.078125 0  0.21875 0.078125 0  0.234375 0.078125 0  0.25 0.078125 0  0.265625 0.078125 0  0.28125 0.078125 0  0.296875 0.078125 0  0.3125 0.078125 0  0.328125 0.078125 0  0.34375 0.078125 0  0.359375 0.078125 0  0.375 0.078125 0  0.390625 0.078125 0  0.40625 0.078125 0  0.421875 0.078125 0  0.4375 0.078125 0  0.453125 0.078125 0  0.46875 0.078125 0  0.484375 0.078125 0  0.5 0.078125 0  0.515625 0.078125 0  0.53125 0.078125 0  0.546875 0.078125 0  0.5625 0.078125 0  0.578125 0.078125 0  0.59375 0.078125 0  0.609375 0.078125 0  0.625 0.078125 0  0.640625 0.078125 0  0.65625 0.078125 0  0.671875 0.078125 0  0.6875 0.078125 0  0.703125 0.078125 0  0.71875 0.078125 0  0.734375 0.078125 0  0.75 0.078125 0  0.765625 0.078125 0  0.78125 0.078125 0  0.796875 0.078125 0  0.8125 0.078125 0  0.828125 0.078125 0  0.84375 0.078125 0  0.859375 0.078125 0  0.875 0.078125 0  0.890625 0.078125 0  0.90625 0.078125 0  0.921875 0.078125 0  0.9375 0.078125 0  0.953125 0.078125 0  0.96875 0.078125 0  0.984375 0.078125 0  1 0.078125 0  0 0.09375 0  0.015625 0.09375 0  0.03125 0.09375 0  0.046875 0.09375 0  0.0625 0.09375 0  0.078125 0.09375 0  0.09375 0.09375 0  0.109375 0.09375 0  0.125 0.09375 0  0.140625 0.09375 0  0.15625 0.09375 0  0.171875 0.09375 0  0.1875 0.09375 0  0.203125 0.09375 0  0.21875 0.09375 0  0.234375 0.09375 0  0.25 0.09375 0  0.265625 0.09375 0  0.28125 0.09375 0  0.296875 0.09375 0  0.3125 0.09375 0  0.328125 0.09375 0  0.34375 0.09375 0  0.359375 0.09375 0  0.375 0.09375 0  0.390625 0.09375 0  0.40625 0.09375 0  0.421875 0.09375 0  0.4375 0.09375 0  0.453125 0.09375 0  0.46875 0.09375 0  0.484375 0.09375 0  0.5 0.09375 0  0.515625 0.09375 0  0.53125 0.09375 0  0.546875 0.09375 0  0.5625 0.09375 0  0.578125 0.09375 0  0.59375 0.09375 0  0.609375 0.09375 0  0.625 0.09375 0  0.640625 0.09375 0  0.65625 0.09375 0  0.671875 0.09375 0  0.6875 0.09375 0  0.703125 0.09375 0  0.71875 0.09375 0  0.734375 0.09375 0  0.75 0.09375 0  0.765625 0.09375 0  0.78125 0.09375 0  0.796875 0.09375 0  0.8125 0.09375 0  0.828125 0.09375 0  0.84375 0.09375 0  0.859375 0.09375 0  0.875 0.09375 0  0.890625 0.09375 0  0.90625 0.09375 0  0.921875 0.09375 0  0.9375 0.09375 0  0.953125 0.09375 0  0.96875 0.09375 0  0.984375 0.09375 0  1 0.09375 0  0 0.109375 0  0.015625 0.109375 0  0.03125 0.109375 0  0.046875 0.109375 0  0.0625 0.109375 0  0.078125 0.109375 0  0.09375 0.109375 0  0.109375 0.109375 0  0.125 0.109375 0  0.140625 0.109375 0  0.15625 0.109375 0  0.171875 0.109375 0  0.1875 0.109375 0  0.203125 0.109375 0  0.21875 0.109375 0  0.234375 0.109375 0  0.25 0.109375 0  0.265625 0.109375 0  0.28125 0.109375 0  0.296875 0.109375 0  0.3125 0.109375 0  0.328125 0.109375 0  0.34375 0.109375 0  0.359375 0.109375 0  0.375 0.109375 0  0.390625 0.109375 0  0.40625 0.109375 0  0.421875 0.109375 0  0.4375 0.109375 0  0.453125 0.109375 0  0.46875 0.109375 0  0.484375 0.109375 0  0.5 0.109375 0  0.515625 0.109375 0  0.53125 0.109375 0  0.546875 0.109375 0  0.5625 0.109375 0  0.578125 0.109375 0  0.59375 0.109375 0  0.609375 0.109375 0  0.625 0.109375 0  0.640625 0.109375 0  0.65625 0.109375 0  0.671875 0.109375 0  0.6875 0.109375 0  0.703125 0.109375 0  0.71875 0.109375 0  0.734375 0.109375 0  0.75 0.109375 0  0.765625 0.109375 0  0.78125 0.109375 0  0.796875 0.109375 0  0.8125 0.109375 0  0.828125 0.109375 0  0.84375 0.109375 0  0.859375 0.109375 0  0.875 0.109375 0  0.890625 0.109375 0  0.90625 0.109375 0  0.921875 0.109375 0  0.9375 0.109375 0  0.953125 0.109375 0  0.96875 0.109375 0  0.984375 0.109375 0  1 0.109375 0  0 0.125 0  0.015625 0.125 0  0.03125 0.125 0  0.046875 0.125 0  0.0625 0.125 0  0.078125 0.125 0  0.09375 0.125 0  0.109375 0.125 0  0.125 0.12
[...]
<PointData  Scalars="v_sol"> 
<DataArray  type="Float64"  Name="v_sol"  format="ascii">4.8942446042595683e-09  1.2194550988659346e-06  2.3739665189759102e-06  3.4666127129459689e-06  4.4957276877323254e-06  5.4596865643923562e-06  6.3569429346663695e-06  7.1860274823350734e-06  7.9455573808192975e-06  8.6342432210024380e-06  9.2508970317907626e-06  9.7944404546237637e-06  1.0263913339186303e-05  1.0658482704819097e-05  1.0977452099261560e-05  1.1220271363361255e-05  1.1386546817191805e-05  1.1476051881551801e-05  1.1488738149960371e-05  1.1424746926369104e-05  1.1284421244390390e-05  1.1068318384317205e-05  1.0777222904652627e-05  1.0412160205413930e-05  9.9744106408435857e-06  9.4655241999584784e-06  8.8873357735385830e-06  8.2419810270884539e-06  7.5319128995097564e-06  6.7599187481067618e-06  5.9291381609757498e-06  5.0430814584226943e-06  4.1056489058185150e-06  3.1211506608144095e-06  2.0943274785552123e-06  1.0303721992684340e-06  -6.5047956851025186e-08  -1.1857682616652416e-06  -2.3251024915707387e-06  -3.4758180532476495e-06  -4.6301101946478941e-06  -5.7795752724252078e-06  -6.9151830463057450e-06  -8.0272479699195761e-06  -9.1053994466467122e-06  -1.0138551018654917e-05  -1.1114868455868177e-05  -1.2021736710780502e-05  -1.2845725704422363e-05  -1.3572554907471691e-05  -1.4187056679490691e-05  -1.4673138328718903e-05  -1.5013742852589178e-05  -1.5190808321275694e-05  -1.5185225855317746e-05  -1.4976796181920957e-05  -1.4544184630364903e-05  -1.3864874872740682e-05  -1.2915120064966527e-05  -1.1669896180084209e-05  -1.0102839421648216e-05  -8.1862351356569398e-06  -5.8908061735251323e-06  -3.1862417641242466e-06  -3.8952862790813942e-08  -2.4517696014847823e-08  -6.1088533930492532e-06  -1.1892371791967951e-05  -1.7365976697398492e-05  -2.2521322316336175e-05  -2.7350268841134979e-05  -3.1845069536706489e-05  -3.5998363878676475e-05  -3.9803224601243127e-05  -4.3253192418729720e-05  -4.6342316195510656e-05  -4.9065193900879381e-05  -5.1417015666780243e-05  -5.3393608681196973e-05  -5.4991484070071736e-05  -5.6207885813929287e-05  -5.7040841774983508e-05  -5.7489216905556882e-05  -5.7552768713231335e-05  -5.7232205058889848e-05  -5.6529244367027421e-05  -5.5446678329643348e-05  -5.3988437187778315e-05  -5.2159657676596674e-05  -4.9966753723079341e-05  -4.7417489988223353e-05  -4.4521058346739640e-05  -4.1288157402731591e-05  -3.7731075139672860e-05  -3.3863774808146459e-05  -2.9701984157098226e-05  -2.5263288116302143e-05  -2.0567225043306904e-05  -1.5635386648776444e-05  -1.0491521719180541e-05  -5.1616437586290096e-06  3.2585732483831646e-07  5.9400993599544283e-06  1.1647587746850484e-05  1.7412090849673100e-05  2.3194510806499826e-05  2.8952749613258480e-05  3.4641570331651050e-05  4.0212453271826188e-05  4.5613446988301521e-05  5.0789013933295840e-05  5.5679870598178496e-05  6.0222821974238410e-05  6.4350590157295312e-05  6.7991636916998600e-05  7.1069980045622910e-05  7.3505003295162776e-05  7.5211259710187731e-05  7.6098268154211756e-05  7.6070302809752894e-05  7.5026175526036153e-05  7.2859010409709378e-05  6.9456012010582315e-05  6.4698220712624809e-05  5.8460278674375228e-05  5.0610116822621602e-05  4.1008898398830668e-05  2.9509960142036100e-05  1.5961460122992643e-05  1.9513408069518273e-07  -1.0859986328937455e-07  -2.7058866827465903e-05  -5.2676678445430602e-05  -7.6921743379656203e-05  -9.9757094402893367e-05  -1.2114667654515488e-04  -1.4105617609199718e-04  -1.5945298993461527e-04  -1.7630643411227598e-04  -1.9158789753227897e-04  -2.0527101993982887e-04  -2.1733187330665727e-04  -2.2774915256239158e-04  -2.3650437444326853e-04  -2.4358208515549198e-04  -2.4897007704806074e-04  -2.5265961463491227e-04  -2.5464567027951425e-04  -2.5492716987444617e-04  -2.5350724885528581e-04  -2.5039351889928857e-04  -2.4559834566941527e-04  -2.3913913797538597e-04  -2.3103864873337578e-04  -2.2132528811843113e-04  -2.1003344931502324e-04  -1.9720384728162891e-04  -1.8288387096018568e-04  -1.6712794937081207e-04  -1.4999793204757976e-04  -1.3156348428253222e-04  -1.1190249765982194e-04  -9.1101516375383771e-05  -6.9256179851716191e-05  -4.6471682172663304e-05  -2.2863248877399430e-05  1.4433683307314044e-06  2.6311378391074329e-05  5.1592418618250439e-05  7.7126002760025139e-05  1.0273894875646722e-04  1.2824478556287778e-04  1.5344313838026280e-04  1.7811909161816438e-04  2.0204252889329891e-04  2.2496744935519502e-04  2.4663125960106252e-04  2.6675404042789819e-04  2.8503778764588219e-04  3.0116562615803172e-04  3.1480099648458556e-04  3.2558681289452008e-04  3.3314459226903363e-04  3.3707355284402741e-04  3.3694968177695983e-04  3.3232477113760939e-04  3.2272541932503476e-04  3.0765200455477550e-04  2.8657760077060551e-04  2.5894694210854138e-04  2.2417503404378725e-04  1.8164690784750468e-04  1.3071292303950153e-04  7.0700505214761869e-05  8.6433710070111674e-07  -2.4176684823932580e-07  -6.0238919173709180e-05  -1.1726973646895313e-04  -1.7124452124923613e-04  -2.2208097642357236e-04  -2.6969883573612122e-04  -3.1402170943004357e-04  -3.5497701589598486e-04  -3.9249644598325346e-04  -4.2651630518754016e-04  -4.5697790986130876e-04  -4.8382799101956978e-04  -5.0701911895106411e-04  -5.2651014589816887e-04  -5.4226666836086179e-04  -5.5426150945748261e-04  -5.6247522209903306e-04  -5.6689661367459909e-04  -5.6752329298741266e-04  -5.6436224019752398e-04  -5.5743040055128055e-04  -5.4675530270022817e-04  -5.3237570243631210e-04  -5.1434225269406987e-04  -4.9271820069625948e-04  -4.6758011314509002e-04  -4.3901863038657470e-04  -4.0713925050464182e-04  -3.7206314432822722e-04  -3.3392800236337625e-04  -2.9288891469222701e-04  -2.4911928491128967e-04  -2.0281177921101367e-04  -1.5417931173271497e-04  -1.0345606736979137e-04  -5.0898563215001329e-05  3.2132501107952296e-06  5.8574845978178737e-05  1.1485593680686094e-04  1.7169924532125223e-04  2.2871923061798879e-04  2.8550076762412214e-04  3.4159777848601487e-04  3.9653181438415759e-04  4.4979058622865838e-04  5.0082644264889291e-04  5.4905479364255716e-04  5.9385247820634298e-04  6.3455607422258217e-04  6.7046014882930218e-04  7.0081544744846579e-04  7.2482701960470766e-04  7.4165227958653186e-04  7.5039900005504582e-04  7.5012323624263114e-04  7.3982717986876688e-04  7.1845693605511636e-04  6.8490023814532996e-04  6.3798403414165063e-04  5.7647218171736291e-04  4.9906235555554929e-04  4.0438550233463417e-04  2.9099537981004420e-04  1.5739469229036443e-04  1.9242022917169284e-06  -4.1888911430766357e-07  -1.0437092692199015e-04  -2.0318344482559510e-04  -2.9670103132291287e-04  -3.8478109709753482e-04  -4.6728457148370795e-04  -5.4407910036552562e-04  -6.1503892767293602e-04  -6.8004569988113438e-04  -7.3898905887195376e-04  -7.9176732842046744e-04  -8.3828821383141294e-04  -8.7846953762871162e-04  -9.1224000654882488e-04  -9.3954001253647478e-04  -9.6032246849025267e-04  -9.7455368007094310e-04  -9.8221425477983820e-04  -9.8330004958926444e-04  -9.7782315843465218e-04  -9.6581294092038948e-04  -9.4731709362927690e-04  -9.2240276546907550e-04  -8.9115771852965673e-04  -8.5369153596904200e-04  -8.1013687849171084e-04  -7.6065079102628330e-04  -7.0541606125967273e-04  -6.4464263173166629e-04  -5.7856906724263260e-04  -5.0746407938080098e-04  -4.3162811002573319e-04  -3.5139497573882978e-04  -2.6713357500809584e-04  -1.7924966036966483e-04  -8.8187677488343761e-05  5.5673266627760495e-06  1.0148772432097868e-04  1.9900125388527852e-04  2.9748889097139225e-04  3.9628264117572793e-04  4.9466325208241907e-04  5.9185784198396085e-04  6.8703744270945529e-04  7.7931445388358146e-04  8.6774000586510277e-04  9.5130122853553250e-04  1.0289184230299097e-03  1.0994421334187742e-03  1.1616501152727620e-03  1.2142441979446023e-03  1.2558470373344509e-03  1.2849987557615418e-03  1.3001534656627456e-03  1.2996756730235320e-03  1.2818365590489633e-03  1.2448101283910864e-03  1.1866692498563212e-03  1.1053814745205289e-03  9.9880504229235187e-04  8.6468352302925954e-04  7.0064487320655692e-04  5.0418330929195756e-04  2.7270459328956989e-04  3.3339040582116567e-06  -6.3493798989822720e-07  -1.5820193957688121e-04  -3.0797863001813492e-04  -4.4972944161846240e-04  -5.8323824222797414e-04  -7.0829423315839802e-04  -8.2469679649595858e-04  -9.3225531542333480e-04  -1.0307903936652889e-03  -1.1201347541144402e-03  -1.2001342793864619e-03  -1.2706490723024177e-03  -1.3315545710220400e-03  -1.3827427116258238e-03  -1.4241231422371433e-03  -1.4556244898170814e-03  -1.4771956816222549e-03  -1.4888073231552237e-03  -1.4904531345511149e-03  -1.4821514473854329e-03  -1.4639467639521197e-03  -1.4359113811191185e-03  -1.3981470809338408e-03  -1.3507868902115899e-03  -1.2939969114097360e-03  -1.2279782271553148e-03  -1.1529688808633179e-03  -1.0692459359577049e-03  -9.7712761627593171e-04  -8.7697553031670439e-04  -7.6919698206601010e-04  -6.5424737121784287e-04  -5.3263268568552258e-04  -4.0491208938497550e-04  -2.7170060835624894e-04  -1.3367191837947615e-04  8.4387626707067396e-06  1.5383167439415792e-04  3.0163940192236342e-04  4.5092364893457870e-04  6.0067189200214651e-04  7.4979391252474133e-04  8.9711820242256962e-04  1.0413882396371470e-03  1.1812586293803711e-03  1.3152911069648518e-03  1.4419503979246865e-03  1.5595999310195133e-03  1.6664973995901711e-03  1.7607901666115077e-03  1.8405105086475228e-03  1.9035706938049788e-03  1.9477578885671700e-03  1.9707288885367196e-03  1.9700046668796184e-03  1.9429647382131156e-03  1.8868413202103537e-03  1.7987133322620518e-03  1.6755000566566812e-03  1.5139550855872408e-03  1.3106581980385393e-03  1.0620139305163535e-03  7.6422410013134211e-04  4.1335644875742372e-04  5.0534196173190232e-06  -8.8508079167800974e-07  -2.2052783961532942e-04  -4.2931118383163333e-04  -6.2690674035240557e-04  -8.1301322862911479e-04  -9.8733680278320635e-04  -1.1495978086203105e-03  -1.2995305331231833e-03  -1.4368849043230201e-03  -1.5614277439388933e-03  -1.6729442178750329e-03  -1.7712393144915109e-03  -1.8561393990596314e-03  -1.9274938343584859e-03  -1.9851766731174649e-03  -2.0290884238824882e-03  -2.0591578930807073e-03  -2.0753441058343298e-03  -2.0776383082322086e-03  -2.0660660538273320e-03  -2.0406893772147716e-03  -2.0016090576294365e-03  -1.9489669755901537e-03  -1.8829485657039652e-03  -1.8037853688399126e-03  -1.7117576869726955e-03  -1.6071973440947805e-03  -1.4904905566958543e-03  -1.3620809174109750e-03  -1.2224724955411128e-03  -1.0722330582614899e-03  -9.1199741644256815e-04  -7.4247089912006015e-04  -5.6443296077174148e-04  -3.7874092567349513e-04  -1.8633387373536662e-04  1.1763327659832180e-05  2.1443584116358726e-04  4.2047452152328436e-04  6.2857141728204992e-04  8.3731510705149987e-04  1.0451858651547609e-03  1.2505506512859297e-03  1.4516579186903361e-03  1.6466322352017787e-03  1.8334687113287693e-03  2.0100272294108746e-03  2.1740264676987815e-03  2.3230377130451056e-03  2.4544784557135862e-03  2.5656057596254531e-03  2.6535094012082993e-03  2.7151047697069248e-03  2.7471255220340883e-03  2.7461159834982428e-03  2.7084232912730792e-03  2.6301892558750922e-03  2.5073419955347937e-03  2.3355871000563452e-03  2.1103991932621170e-03  1.8270106094252652e-03  1.4804094013781397e-03  1.0653010377785453e-03  5.7620409197928170e-04  7.0442860544393781e-06  -1.1646553385110495e-06  -2.9018699210446358e-04  -5.6491970076896151e-04  -8.2493068336307986e-04  -1.0698234923780653e-03  -1.2992114634179089e-03  -1.5127266066085642e-03  -1.7100192769289074e-03  -1.8907604110319247e-03  -2.0546431755506167e-03  -2.2013848757689186e-03  -2.3307289008373156e-03  -2.4424467692397839e-03  -2.5363402612943171e-03  -2.6122436461945226e-03  -2.6700260056673154e-03  -2.7095936578993354e-03  -2.7308926850870010e-03  -2.7339115681755989e-03  -2.7186839324285354e-03  -2.6852914075849192e-03  -2.6338666064709528e-03  -2.5645962260493651e-03  -2.4777242750039434e-03  -2.3735554320802200e-03  -2.2524585395287682e-03  -2.1148702361194192e-03  -1.9612987343326908e-03  -1.7923277464664429e-03  -1.6086205645319657e-03  -1.4109242989589661e-03  -1.2000742812755794e-03  -9.7699863607469397e-04  -7.4272302773578994e-04  -4.9837558752772668e-04  -2.4519202688090444e-04  1.5479057219227541e-05  2.8217067859493430e-04  5.5329175369262516e-04  8.2712118238196456e-04  1.1018017110736070e-03  1.3753335713079613e-03  1.6455678867734833e-03  1.9101998415186026e-03  2.1667616019092192e-03  2.4126149846864305e-03  2.6449438632578175e-03  2.8607463041372375e-03  3.0568264252216490e-03  3.2297859673653313e-03  3.3760155704610239e-03  3.4916857450266597e-03  3.5727375299129298e-03  3.6148728270114076e-03  3.6135444015703740e-03  3.5639455439907676e-03  3.4609993605480942e-03  3.2993477652857313e-03  3.0733398527263609e-03  2.7770207951725071e-03  2.4041169421361169e-03  1.9480331995912587e-03  1.4018026277043997e-03  7.5821235640808151e-04  9.2693974553855985e-06  -1.4691767809320366e-06  -3.6606194628785991e-04  -7.1262879059865510e-04  -1.0406246312968043e-03  -1.3495493619914700e-03  -1.6389152174086719e-03  -1.9082579896501457e-03  -2.1571366122981775e-03  -2.3851359820989157e-03  -2.5918690382389733e-03  -2.7769791700733093e-03  -2.9401426709505657e-03  -3.0810713185048279e-03  -3.1995150647376488e-03  -3.2952648453613191e-03  -3.3681555110204151e-03  -3.4180688850003332e-03  -3.4449369516536283e-03  -3.4487451800424363e-03  -3.4295359873902746e-03  -3.3874123470836941e-03  -3.3225415460997132e-03  -3.2351590968856146e-03  -3.1255728088582600e-03  -2.9941670248489877e-03  -2.8414070279750105e-03  -2.6678436245758993e-03  -2.4741179090241876e-03  -2.2609662163877351e-03  -2.0292252690921834e-03  -1.7798375239156668e-03  -1.5138567258327269e-03  -1.2324536754073140e-03  -9.3692221663462156e-04  -6.2868545232873515e-04  -3.0930219435635785e-04  1.9526343772981411e-05  3.5594960423707090e-04  6.9796048420302215e-04  1.0433878689356814e-03  1.3898888903062833e-03  1.7349409020665002e-03  2.0758331630006646e-03  2.4096582188323388e-03  2.7333029734898750e-03  3.0434394400835145e-03  3.3365151616752899e-03  3.6087432916411463e-03  3.8560923231383943e-03  4.0742754569108256e-03  4.2587395963376235e-03  4.4046539583756051e-03  4.5068982885498616e-03  4.5600506684947469e-03  4.5583749016639176e-03  4.4958074720122384e-03  4.3659440345673499e-03  4.1620255290548891e-03  3.8769235123982076e-03  3.5031261530591943e-03  3.0327194342794155e-03  2.4573838483529908e-03  1.7683308151641634e-03  9.5646152160105784e-04  1.1693059273297811e-05  -1.7943357717119066e-06  -4.4707897965191558e-04  -8.7034819076798849e-04  -1.2709362534976765e-03  -1.6482323775454217e-03  -2.0016408450994855e-03  -2.3305947094949668e-03  -2.6345552872492021e-03  -2.9130156042418026e-03  -3.1655029351691294e-03  -3.3915817441486917e-03  -3.5908566816227694e-03  -3.7629757357194238e-03  -3.9076335177028430e-03  -4.0245746930808873e-03  -4.1135975615651764e-03  -4.1745577915127995e-03  -4.2073723140169947e-03  -4.2120233821400944e-03  -4.1885628008993788e-03  -4.1371163337943825e-03  -4.0578882918316482e-03  -3.9511663111852433e-03  -3.8173263258038572e-03  -3.6568377414694527e-03  -3.4702688180006597e-03  -3.2582922664881595e-03  -3.0216910686561042e-03  -2.7613645256498484e-03  -2.4783345437606498e-03  -2.1737521648183575e-03  -1.8489043492143620e-03  -1.5052210197356818e-03  -1.1442823746375204e-03  -7.6782647862315260e-04  -3.7775714064627652e-04  2.3847912291108722e-05  4.3472855591285362e-04  8.5243347430621300e-04  1.2743110404513506e-03  1.6974998613762083e-03  2.1189189773890256e-03  2.5352577045384848e-03  2.9429651091548892e-03  3.3382391029989416e-03  3.7170151472398255e-03  4.0749545531414142e-03  4.4074323670065113e-03  4.7095248265662431e-03  4.9759963756657926e-03  5.2012862236976883e-03  5.3794944359176547e-03  5.5043675401780859e-03  5.5692836360355024e-03  5.5672369886633991e-03  5.4908221012303455e-03  5.3322172155547852e-03  5.0831673523969202e-03  4.7349663977143261e-03  4.2784399972977134e-03  3.7039225997839800e-03  3.0012534195042019e-03  2.1596987826867993e-03  1.1681461219245528e-03  1.4280973759227840e-05  -2.1359989560772807e-06  -5.3220822009608963e-04  -1.0360730042362671e-03  -1.5129378753060629e-03  -1.9620757410746684e-03  -2.3827774518044120e-03  -2.7743681073167941e-03  -3.1362064522847911e-03  -3.4676889786063939e-03  -3.7682529483938684e-03  -4.0373798945011414e-03  -4.2745991880705101e-03  -4.4794917899479937e-03  -4.6516941617210390e-03  -4.7909023501486276e-03  -4.8968762487882206e-03  -4.9694440435193530e-03  -5.0085068481157749e-03  -5.0140435364062867e-03  -4.9861157777010444e-03  -4.9248732823760789e-03  -4.8305592647048335e-03  -4.7035161302449412e-03  -4.5441913952898125e-03  -4.3531438461339115e-03  -4.1310499461114656e-03  -3.8787104986155591e-03  -3.5970575745355449e-03  -3.2871617128076842e-03  -2.9502394030162301e-03  -2.5876608592514780e-03  -2.2009580947012237e-03  -1.7918333067135502e-03  -1.3621675823668933e-03  -9.1402993486256498e-04  -4.4968668135534522e-04  2.8388826857771861e-05  5.1750611056395701e-04  1.0147470937176993e-03  1.5169552475088669e-03  2.0207243351986616e-03  2.5223867451623434e-03  3.0180013992279534e-03  3.5033412230379038e-03  3.9738801647808920e-03  4.4247797482662348e-03  4.8508751459215580e-03  5.2466607568830035e-03  5.6062752749340234e-03  5.9234862306344668e-03  6.1916739915148468e-03  6.4038152038274872e-03  6.5524656586373378e-03  6.6297425655295486e-03  6.6273062130273539e-03  6.5363410081610528e-03  6.3475358354492754e-03  6.0510638678616122e-03  5.6365612420585997e-03  5.0931066959854368e-03  4.4091942404938071e-03  3.5727283536261538e-03  2.5709315402174669e-03  1.3905752657547143e-03  1.7000243868642863e-05  -2.4902088403677463e-06  -6.2046361319864206e-04  -1.2078836357499489e-03  -1.7638263850038576e-03  -2.2874441958935375e-03  -2.7779103212537191e-03  -3.2344379430749963e-03  -3.6562794675000562e-03  -4.0427313074868172e-03  -4.3931374070884386e-03  -4.7068933224653064e-03  -4.9834503810288755e-03  -5.2223200549471587e-03  -5.4230785207418832e-03  -5.5853714210326024e-03  -5.7089188328625891e-03  -5.7935204504163803e-03  -5.8390609893028940e-03  -5.8455158200268701e-03  -5.8129568384341470e-03  -5.7415585811645695e-03  -5.6316045943799829e-03  -5.4834940642830912e-03  -5.2977487181855099e-03  -5.0750200051578034e-03  -4.8160965655389930e-03  -4.5219119988763696e-03  -4.1935529401321151e-03  -3.8322674542901783e-03  -3.4394737597876180e-03  -3.0167692915011807e-03  -2.5659401143355745e-03  -2.0889706987697139e-03  -1.5880540700601144e-03  -1.0656023431241449e-03  -5.2425765548664270e-04  3.3096488988413396e-05  6.0332345248338161e-04  1.1830212582629202e-03  1.7685099345113281e-03  2.3558183927382390e-03  2.9406708260983020e-03  3.5184726125831426e-03  4.0842957076055279e-03  4.6328635100602129e-03  5.1585351855127958e-03  5.6552894296990775e-03  6.1167076550518824e-03  6.5359565824794985e-03  6.9057702201417888e-03  7.2184312104256109e-03  7.4657515258710070e-03  7.6390524939782267e-03  7.7291441313953758e-03  7.7263037631147852e-03  7.6202539178646120e-03  7.4001394300438053e-03  7.0545039027683620e-03  6.5712648468314299e-03  5.9376899416465840e-03  5.1403651749485522e-03  4.1651892402763367e-03  2.9972657669808155e-03  1.6211725499479413e-03  1.9819372214721404e-05  -2.8531838271375323e-06  -7.1090293098723925e-04  -1.3839458089174330e-03  -2.0209232587488136e-03  -2.6208640589334034e-03  -3.1828209548659613e-03  -3.7058924412418500e-03  -4.1892219542747373e-03  -4.6320033514827838e-03  -5.0334849496635079e-03  -5.3929742007543836e-03  -5.7098424572130310e-03  -5.9835299830058508e-03  -6.2135511778135489e-03  -6.3995000328496438e-03  -6.5410558233716483e-03  -6.6379890468354500e-03  -6.6901676149113140e-03  -6.6975633080934693e-03  -6.6602585018277734e-03  -6.5784531733589363e-03  -6.4524721987700255e-03  -6.2827729499730853e-03  -6.0699532016838141e-03  -5.8147593587295583e-03  -5.5180950143236531e-03  -5.1810298502661337e-03  -4.8048088903454994e-03  -4.3908621185527611e-03  -3.9408144740451087e-03  -3.456496235162723