<?xml version="1.0"?>
<VTKFile type="UnstructuredGrid"  version="0.1"  >
<UnstructuredGrid>
<Piece  NumberOfPoints="16641" NumberOfCells="16384">
<Points>
<DataArray  type="Float64"  NumberOfComponents="3"  format="ascii">0 0 0  0.0078125 0 0  0.015625 0 0  0.0234375 0 0  0.03125 0 0  0.0390625 0 0  0.046875 0 0  0.0546875 0 0  0.0625 0 0  0.0703125 0 0  0.078125 0 0  0.0859375 0 0  0.09375 0 0  0.1015625 0 0  0.109375 0 0  0.1171875 0 0  0.125 0 0  0.1328125 0 0  0.140625 0 0  0.1484375 0 0  0.15625 0 0  0.1640625 0 0  0.171875 0 0  0.1796875 0 0  0.1875 0 0  0.1953125 0 0  0.203125 0 0  0.2109375 0 0  0.21875 0 0  0.2265625 0 0  0.234375 0 0  0.2421875 0 0  0.25 0 0  0.2578125 0 0  0.265625 0 0  0.2734375 0 0  0.28125 0 0  0.2890625 0 0  0.296875 0 0  0.3046875 0 0  0.3125 0 0  0.3203125 0 0  0.328125 0 0  0.3359375 0 0  0.34375 0 0  0.3515625 0 0  0.359375 0 0  0.3671875 0 0  0.375 0 0  0.3828125 0 0  0.390625 0 0  0.3984375 0 0  0.40625 0 0  0.4140625 0 0  0.421875 0 0  0.4296875 0 0  0.4375 0 0  0.4453125 0 0  0.453125 0 0  0.4609375 0 0  0.46875 0 0  0.4765625 0 0  0.484375 0 0  0.4921875 0 0  0.5 0 0  0.5078125 0 0  0.515625 0 0  0.5234375 0 0  0.53125 0 0  0.5390625 0 0  0.546875 0 0  0.5546875 0 0  0.5625 0 0  0.5703125 0 0  0.578125 0 0  0.5859375 0 0  0.59375 0 0  0.6015625 0 0  0.609375 0 0  0.6171875 0 0  0.625 0 0  0.6328125 0 0  0.640625 0 0  0.6484375 0 0  0.65625 0 0  0.6640625 0 0  0.671875 0 0  0.6796875 0 0  0.6875 0 0  0.6953125 0 0  0.703125 0 0  0.7109375 0 0  0.71875 0 0  0.7265625 0 0  0.734375 0 0  0.7421875 0 0  0.75 0 0  0.7578125 0 0  0.765625 0 0  0.7734375 0 0  0.78125 0 0  0.7890625 0 0  0.796875 0 0  0.8046875 0 0  0.8125 0 0  0.8203125 0 0  0.828125 0 0  0.8359375 0 0  0.84375 0 0  0.8515625 0 0  0.859375 0 0  0.8671875 0 0  0.875 0 0  0.8828125 0 0  0.890625 0 0  0.8984375 0 0  0.90625 0 0  0.9140625 0 0  0.921875 0 0  0.9296875 0 0  0.9375 0 0  0.9453125 0 0  0.953125 0 0  0.9609375 0 0  0.96875 0 0  0.9765625 0 0  0.984375 0 0  0.9921875 0 0  1 0 0  0 0.0078125 0  0.0078125 0.0078125 0  0.015625 0.0078125 0  0.0234375 0.0078125 0  0.03125 0.0078125 0  0.0390625 0.0078125 0  0.046875 0.0078125 0  0.0546875 0.0078125 0  0.0625 0.0078125 0  0.0703125 0.0078125 0  0.078125 0.0078125 0  0.0859375 0.0078125 0  0.09375 0.0078125 0  0.1015625 0.0078125 0  0.109375 0.0078125 0  0.1171875 0.0078125 0  0.125 0.0078125 0  0.1328125 0.0078125 0  0.140625 0.0078125 0  0.1484375 0.0078125 0  0.15625 0.0078125 0  0.1640625 0.0078125 0  0.171875 0.0078125 0  0.1796875 0.0078125 0  0.1875 0.0078125 0  0.1953125 0.0078125 0  0.203125 0.0078125 0  0.2109375 0.0078125 0  0.21875 0.0078125 0  0.2265625 0.0078125 0  0.234375 0.0078125 0  0.2421875 0.0078125 0  0.25 0.0078125 0  0.2578125 0.0078125 0  0.265625 0.0078125 0  0.2734375 0.0078125 0  0.28125 0.0078125 0  0.2890625 0.0078125 0  0.296875 0.0078125 0  0.3046875 0.0078125 0  0.3125 0.0078125 0  0.3203125 0.0078125 0  0.328125 0.0078125 0  0.3359375 0.0078125 0  0.34375 0.0078125 0  0.3515625 0.0078125 0  0.359375 0.0078125 0  0.3671875 0.0078125 0  0.375 0.0078125 0  0.3828125 0.0078125 0  0.390625 0.0078125 0  0.3984375 0.0078125 0  0.40625 0.0078125 0  0.4140625 0.0078125 0  0.421875 0.0078125 0  0.4296875 0.0078125 0  0.4375 0.0078125 0  0.4453125 0.0078125 0  0.453125 0.0078125 0  0.4609375 0.0078125 0  0.46875 0.0078125 0  0.4765625 0.0078125 0  0.484375 0.0078125 0  0.4921875 0.0078125 0  0.5 0.0078125 0  0.5078125 0.0078125 0  0.515625 0.0078125 0  0.5234375 0.0078125 0  0.53125 0.0078125 0  0.5390625 0.0078125 0  0.546875 0.0078125 0  0.5546875 0.0078125 0  0.5625 0.0078125 0  0.5703125 0.0078125 0  0.578125 0.0078125 0  0.5859375 0.0078125 0  0.59375 0.0078125 0  0.6015625 0.0078125 0  0.609375 0.0078125 0  0.6171875 0.0078125 0  0.625 0.0078125 0  0.6328125 0.0078125 0  0.640625 0.0078125 0  0.6484375 0.0078125 0  0.65625 0.0078125 0  0.6640625 0.0078125 0  0.671875 0.0078125 0  0.6796875 0.0078125 0  0.6875 0.0078125 0  0.6953125 0.0078125 0  0.703125 0.0078125 0  0.7109375 0.0078125 0  0.71875 0.0078125 0  0.7265625 0.0078125 0  0.734375 0.0078125 0  0.7421875 0.0078125 0  0.75 0.0078125 0  0.7578125 0.0078125 0  0.765625 0.0078125 0  0.7734375 0.0078125 0  0.78125 0.0078125 0  0.7890625 0.0078125 0  0.796875 0.0078125 0  0.8046875 0.0078125 0  0.8125 0.0078125 0  0.8203125 0.0078125 0  0.828125 0.0078125 0  0.8359375 0.0078125 0  0.84375 0.0078125 0  0.8515625 0.0078125 0  0.859375 0.0078125 0  0.8671875 0.0078125 0  0.875 0.0078125 0  0.8828125 0.0078125 0  0.890625 0.0078125 0  0.8984375 0.0078125 0  0.90625 0.0078125 0  0.9140625 0.0078125 0  0.921875 0.0078125 0  0.9296875 0.0078125 0  0.9375 0.0078125 0  0.9453125 0.0078125 0  0.953125 0.0078125 0  0.9609375 0.0078125 0  0.96875 0.0078125 0  0.9765625 0.0078125 0  0.984375 0.0078125 0  0.9921875 0.0078125 0  1 0.0078125 0  0 0.015625 0  0.0078125 0.015625 0  0.015625 0.015625 0  0.0234375 0.015625 0  0.03125 0.015625 0  0.0390625 0.015625 0  0.046875 0.015625 0  0.0546875 0.015625 0  0.0625 0.015625 0  0.0703125 0.015625 0  0.078125 0.015625 0  0.0859375 0.015625 0  0.09375 0.015625 0  0.1015625 0.015625 0  0.109375 0.015625 0  0.1171875 0.015625 0  0.125 0.015625 0  0.1328125 0.015625 0  0.140625 0.015625 0  0.1484375 0.015625 0  0.15625 0.015625 0  0.1640625 0.015625 0  0.171875 0.015625 0  0.1796875 0.015625 0  0.1875 0.015625 0  0.1953125 0.015625 0  0.203125 0.015625 0  0.2109375 0.015625 0  0.21875 0.015625 0  0.2265625 0.015625 0  0.234375 0.015625 0  0.2421875 0.015625 0  0.25 0.015625 0  0.2578125 0.015625 0  0.265625 0.015625 0  0.2734375 0.015625 0  0.28125 0.015625 0  0.2890625 0.015625 0  0.296875 0.015625 0  0.3046875 0.015625 0  0.3125 0.015625 0  0.3203125 0.015625 0  0.328125 0.015625 0  0.3359375 0.015625 0  0.34375 0.015625 0  0.3515625 0.015625 0  0.359375 0.015625 0  0.3671875 0.015625 0  0.375 0.015625 0  0.3828125 0.015625 0  0.390625 0.015625 0  0.3984375 0.015625 0  0.40625 0.015625 0  0.4140625 0.015625 0  0.421875 0.015625 0  0.4296875 0.015625 0  0.4375 0.015625 0  0.4453125 0.015625 0  0.453125 0.015625 0  0.4609375 0.015625 0  0.46875 0.015625 0  0.4765625 0.015625 0  0.484375 0.015625 0  0.4921875 0.015625 0  0.5 0.015625 0  0.5078125 0.015625 0  0.515625 0.015625 0  0.5234375 0.015625 0  0.53125 0.015625 0  0.5390625 0.015625 0  0.546875 0.015625 0  0.5546875 0.015625 0  0.5625 0.015625 0  0.5703125 0.015625 0  0.578125 0.015625 0  0.5859375 0.015625 0  0.59375 0.015625 0  0.6015625 0.015625 0  0.609375 0.015625 0  0.6171875 0.015625 0  0.625 0.015625 0  0.6328125 0.015625 0  0.640625 0.015625 0  0.6484375 0.015625 0  0.65625 0.015625 0  0.6640625 0.015625 0  0.671875 0.015625 0  0.6796875 0.015625 0  0.6875 0.015625 0  0.6953125 0.015625 0  0.703125 0.015625 0  0.7109375 0.015625 0  0.71875 0.015625 0  0.7265625 0.015625 0  0.734375 0.015625 0  0.7421875 0.015625 0  0.75 0.015625 0  0.7578125 0.015625 0  0.765625 0.015625 0  0.7734375 0.015625 0  0.78125 0.015625 0  0.7890625 0.015625 0  0.796875 0.015625 0  0.8046875 0.015625 0  0.8125 0.015625 0  0.8203125 0.015625 0  0.828125 0.015625 0  0.8359375 0.015625 0  0.84375 0.015625 0  0.8515625 0.015625 0  0.859375 0.015625 0  0.8671875 0.015625 0  0.875 0.015625 0  0.8828125 0.015625 0  0.890625 0.015625 0  0.8984375 0.015625 0  0.90625 0.015625 0  0.9140625 0.015625 0  0.921875 0.015625 0  0.9296875 0.015625 0  0.9375 0.015625 0  0.9453125 0.015625 0  0.953125 0.015625 0  0.9609375 0.015625 0  0.96875 0.015625 0  0.9765625 0.015625 0  0.984375 0.015625 0  0.9921875 0.015625 0  1 0.015625 0  0 0.0234375 0  0.0078125 0.0234375 0  0.015625 0.0234375 0  0.0234375 0.0234375 0  0.03125 0.0234375 0  0.0390625 0.0234375 0  0.046875 0.0234375 0  0.0546875 0.0234375 0  0.0625 0.0234375 0  0.0703125 0.0234375 0  0.078125 0.0234375 0  0.0859375 0.0234375 0  0.09375 0.0234375 0  0.1015625 0.0234375 0  0.109375 0.0234375 0  0.1171875 0.0234375 0  0.125 0.0234375 0  0.1328125 0.0234375 0  0.140625 0.0234375 0  0.1484375 0.0234375 0  0.15625 0.0234375 0  0.1640625 0.0234375 0  0.171875 0.0234375 0  0.1796875 0.0234375 0  0.1875 0.0234375 0  0.1953125 0.0234375 0  0.203125 0.0234375 0  0.2109375 0.0234375 0  0.21875 0.0234375 0  0.2265625 0.0234375 0  0.234375 0.0234375 0  0.2421875 0.0234375 0  0.25 0.0234375 0  0.2578125 0.0234375 0  0.265625 0.0234375 0  0.2734375 0.0234375 0  0.28125 0.0234375 0  0.2890625 0.0234375 0  0.296875 0.0234375 0  0.3046875 0.0234375 0  0.3125 0.0234375 0  0.3203125 0.0234375 0  0.328125 0.0234375 0  0.3359375 0.0234375 0  0.34375 0.0234375 0  0.3515625 0.0234375 0  0.359375 0.0234375 0  0.3671875 0.0234375 0  0.375 0.0234375 0  0.3828125 0.0234375 0  0.390625 0.0234375 0  0.3984375 0.0234375 0  0.40625 0.0234375 0  0.4140625 0.0234375 0  0.421875 0.0234375 0  0.4296875 0.0234375 0  0.4375 0.0234375 0  0.4453125 0.0234375 0  0.453125 0.0234375 0  0.4609375 0.0234375 0  0.46875 0.0234375 0  0.4765625 0.0234375 0  0.484375 0.0234375 0  0.4921875 0.0234375 0  0.5 0.0234375 0  0.5078125 0.0234375 0  0.515625 0.0234375 0  0.5234375 0.0234375 0  0.53125 0.0234375 0  0.5390625 0.0234375 0  0.546875 0.0234375 0  0.5546875 0.0234375 0  0.5625 0.0234375 0  0.5703125 0.0234375 0  0.578125 0.0234375 0  0.5859375 0.0234375 0  0.59375 0.0234375 0  0.6015625 0.0234375 0  0.609375 0.0234375 0  0.6171875 0.0234375 0  0.625 0.0234375 0  0.6328125 0.0234375 0  0.640625 0.0234375 0  0.6484375 0.0234375 0  0.65625 0.0234375 0  0.6640625 0.0234375 0  0.671875 0.0234375 0  0.6796875 0.0234375 0  0.6875 0.0234375 0  0.6953125 0.0234375 0  0.703125 0.0234375 0  0.7109375 0.0234375 0  0.71875 0.0234375 0  0.7265625 0.0234375 0  0.734375 0.0234375 0  0.7421875 0.0234375 0  0.75 0.0234375 0  0.7578125 0.0234375 0  0.765625 0.0234375 0  0.7734375 0.0234375 0  0.78125 0.0234375 0  0.7890625 0.0234375 0  0.796875 0.0234375 0  0.8046875 0.0234375 0  0.8125 0.0234375 0  0.8203125 0.0234375 0  0.828125 0.0234375 0  0.8359375 0.0234375 0  0.84375 0.0234375 0  0.8515625 0.0234375 0  0.859375 0.0234375 0  0.8671
[...]
<PointData  Scalars="v_sol"> 
<DataArray  type="Float64"  Name="v_sol"  format="ascii">-1.2790800747903028e-06  -1.8898841441128061e-06  3.0731242285527979e-06  1.1339381114821281e-05  2.0579135954604146e-05  2.9362972134669304e-05  3.6727791460180511e-05  4.2003926807834184e-05  4.4809589849250509e-05  4.5070709125389391e-05  4.3011300761860545e-05  3.9101946750427699e-05  3.3975223862394976e-05  2.8326907162236070e-05  2.2822870563648069e-05  1.8026611230361677e-05  1.4354292162599144e-05  1.2056260708919984e-05  1.1218547664774753e-05  1.1776085043286292e-05  1.3531203776589750e-05  1.6175118248084806e-05  1.9314446118312591e-05  2.2506917060503177e-05  2.5308439677192772e-05  2.7327488756010623e-05  2.8274701395439681e-05  2.7990164787242857e-05  2.6432871312854546e-05  2.3628178137956993e-05  1.9586579437596047e-05  1.4222310641179538e-05  7.3035793976420759e-06  -1.5471408938269902e-06  -1.2808679795510184e-05  -2.6999220885119135e-05  -4.4625957581061598e-05  -6.6158024079794080e-05  -9.2012254772747156e-05  -1.2253227702287213e-04  -1.5794889457383836e-04  -1.9832609086058200e-04  -2.4350802261121376e-04  -2.9307367405856426e-04  -3.4629328383804672e-04  -4.0209730034557526e-04  -4.5909234863771307e-04  -5.1563587248511027e-04  -5.6993372405249050e-04  -6.2012114862167915e-04  -6.6432572632141144e-04  -7.0073539925757488e-04  -7.2768484413663161e-04  -7.4375094950454525e-04  -7.4783524696475819e-04  -7.3921345011079538e-04  -7.1754374122444170e-04  -6.8283774050520321e-04  -6.3540638046855958e-04  -5.7579558946598279e-04  -5.0472512895332559e-04  -4.2304008119585973e-04  -3.3168002004642052e-04  -2.3166694195738831e-04  -1.2411015321429068e-04  -1.0224210490282399e-05  1.0864506946318679e-04  2.3099210792339877e-04  3.5512627869656478e-04  4.7915531235112434e-04  6.0098208147198911e-04  7.1831864633868734e-04  8.2871990905584070e-04  9.2963770808124336e-04  1.0184946096762450e-03  1.0927751743134834e-03  1.1501313279796068e-03  1.1884977842371997e-03  1.2062127657104667e-03  1.2021385323176485e-03  1.1757747556717828e-03  1.1273555794095358e-03  1.0579183181196620e-03  9.6932928703459954e-04  8.6425153875520615e-04  7.4604231297055110e-04  6.1857579012410081e-04  4.8599934681335801e-04  3.5244663191841388e-04  2.2174476158965788e-04  9.7161217482932583e-05  -1.8765034339553706e-05  -1.2427537662525873e-04  -2.1831464244075101e-04  -3.0034087657494893e-04  -3.7006551409987594e-04  -4.2719200113121574e-04  -4.7123428048365351e-04  -5.0149029390245169e-04  -5.1721048800479775e-04  -5.1793556252090168e-04  -5.0389866789251182e-04  -4.7633507312378712e-04  -4.3755879718235030e-04  -3.9075428556352437e-04  -3.3954343347356096e-04  -2.8746486128432589e-04  -2.3751802203785449e-04  -1.9188303655014760e-04  -1.5184954355906773e-04  -1.1791403925722231e-04  -8.9969004679318841e-05  -6.7510651864010899e-05  -4.9817574601068048e-05  -3.6081821782270145e-05  -2.5495456725301197e-05  -1.7305424633357378e-05  -1.0849517913873984e-05  -5.5815624063037742e-06  -1.0892922033465179e-06  2.8938194651859088e-06  6.4816438585783316e-06  9.6300954927842336e-06  1.2131669321904297e-05  1.3596686901704972e-05  1.3456724881401067e-05  1.0942331854221299e-05  6.0251747446782720e-06  4.7882122402535783e-07  5.5331953272830593e-06  1.7549670763755995e-05  -9.9632820535173702e-06  -5.4997546391226482e-05  -1.0432325385189455e-04  -1.5092005415972401e-04  -1.8990294903041012e-04  -2.1776260386777719e-04  -2.3246152545318500e-04  -2.3360729277918559e-04  -2.2242631779890174e-04  -2.0148333840121609e-04  -1.7420819218836578e-04  -1.4434527231457967e-04  -1.1544346279349172e-04  -9.0470683996271236e-05  -7.1587486718959425e-05  -6.0067679705728678e-05  -5.6324170642457811e-05  -5.9990571537545698e-05  -7.0021834930193179e-05  -8.4802540413584480e-05  -1.0227752070776899e-04  -1.2013266342510863e-04  -1.3604311469801752e-04  -1.4797017356695097e-04  -1.5443991890921966e-04  -1.5470252038243554e-04  -1.4868005363243602e-04  -1.3667516869125452e-04  -1.1891463707331335e-04  -9.5091233585823062e-05  -6.4087203523166512e-05  -2.3984555918994248e-05  2.7676268129225292e-05  9.3549398454666785e-05  1.7621902914812616e-04  2.7808089266643767e-04  4.0130428907453341e-04  5.4775806845075783e-04  7.1882325682910740e-04  9.1511369423155230e-04  1.1362081348825590e-03  1.3804432833275893e-03  1.6447069915963639e-03  1.9242514230918923e-03  2.2127125922658366e-03  2.5024244402701290e-03  2.7848581335218124e-03  3.0509951922497889e-03  3.2916391923157565e-03  3.4977755232666005e-03  3.6610163962314448e-03  3.7740589036280459e-03  3.8310451439184144e-03  3.8277477378605980e-03  3.7615656086940237e-03  3.6313655594903396e-03  3.4372307896685518e-03  3.1801805980199833e-03  2.8619148978808249e-03  2.4846217544517383e-03  2.0508709305150081e-03  1.5636038656073837e-03  1.0262211682704086e-03  4.4276128363681039e-04  -1.8184241821214559e-04  -8.4144563188570600e-04  -1.5283459936392815e-03  -2.2329423260503706e-03  -2.9434484501143646e-03  -3.6457202972861517e-03  -4.3232617867982838e-03  -4.9574752213103297e-03  -5.5282116016940833e-03  -6.0146512529907839e-03  -6.3965055121755878e-03  -6.6554767791655528e-03  -6.7768545647415215e-03  -6.7510699591144504e-03  -6.5749945185882988e-03  -6.2527663132107940e-03  -5.7959644516688506e-03  -5.2230348767909624e-03  -4.5579825992229824e-03  -3.8284675359910054e-03  -3.0635453376403657e-03  -2.2913568239808914e-03  -1.5370753567451928e-03  -8.2137226708769594e-04  -1.5957033219436896e-04  4.3845353124029025e-04  9.6766269152916530e-04  1.4266925421451070e-03  1.8163374962744052e-03  2.1379737598055254e-03  2.3922417820750738e-03  2.5783173917465923e-03  2.6940324134916726e-03  2.7369271660377054e-03  2.7060261183817378e-03  2.6038000541657958e-03  2.4375793309896945e-03  2.2197866938022948e-03  1.9667844987603556e-03  1.6966699953862403e-03  1.4267186570208240e-03  1.1712261859855892e-03  9.4026054580859878e-04  7.3944312049213591e-04  5.7053034484894061e-04  4.3240746721104724e-04  3.2213526124083358e-04  2.3582298240231955e-04  1.6924912283695540e-04  1.1825854364639325e-04  7.9009403509131627e-05  4.8137250746511082e-05  2.2875099926093818e-05  1.1427667995609739e-06  -1.8392185965952604e-05  -3.6277008977208108e-05  -5.2246209993938275e-05  -6.5178838021617776e-05  -7.3009649469958938e-05  -7.2545209018088161e-05  -5.9366884649500973e-05  -2.9225618722257862e-05  4.3394157851146572e-06  1.6634071771420855e-05  1.5520425903813035e-05  -9.8560018135637460e-05  -2.7131120697452377e-04  -4.6103467744901310e-04  -6.4055547499609173e-04  -7.9037583288882264e-04  -8.9685537221477073e-04  -9.5237373597084466e-04  -9.5564162082598092e-04  -9.1138505427278203e-04  -8.2923549727559613e-04  -7.2201706032870377e-04  -6.0378859665534022e-04  -4.8800994076817112e-04  -3.8610499689992401e-04  -3.0654711378158534e-04  -2.5444906060168010e-04  -2.3154185768267926e-04  -2.3639437402048197e-04  -2.6475789970137629e-04  -3.0999500974113637e-04  -3.6363113108476761e-04  -4.1610377860009181e-04  -4.5774177664697656e-04  -4.7988145332803010e-04  -4.7586587459498732e-04  -4.4156865169409353e-04  -3.7513311544970377e-04  -2.7586038318358285e-04  -1.4254611827900726e-04  2.8122746630692974e-05  2.4244888138892382e-04  5.0952193044726229e-04  8.4009288569708172e-04  1.2451026353073665e-03  1.7344452870497100e-03  2.3161412830464954e-03  2.9956817687764943e-03  3.7752429709974741e-03  4.6526426404847132e-03  5.6201434905809077e-03  6.6635192191867032e-03  7.7618226017051430e-03  8.8878208382700535e-03  1.0008853008238772e-02  1.1088229274290116e-02  1.2087382642343481e-02  1.2968538101978316e-02  1.3697347865982139e-02  1.4245029557960715e-02  1.4589770906218633e-02  1.4717337452491801e-02  1.4620934658515407e-02  1.4300460852675683e-02  1.3761343816605215e-02  1.3013173998117342e-02  1.2068330783035526e-02  1.0940756655752368e-02  9.6449817888616118e-03  8.1954517038534454e-03  6.6061702497472678e-03  4.8906426719995955e-03  3.0620867982109473e-03  1.1338719728572620e-03  -8.7985914660899272e-04  -2.9634342477585533e-03  -5.0988147312563698e-03  -7.2647422595517527e-03  -9.4359456957593662e-03  -1.1582501930090864e-02  -1.3669460908103876e-02  -1.5656857289565805e-02  -1.7500232209757587e-02  -1.9151772228180368e-02  -2.0562130009805075e-02  -2.1682921036632937e-02  -2.2469792007399483e-02  -2.2885841262477426e-02  -2.2905057481774869e-02  -2.2515357336073634e-02  -2.1720774374687831e-02  -2.0542401446553778e-02  -1.9017823748839806e-02  -1.7198981981179765e-02  -1.5148638713574920e-02  -1.2935836696688886e-02  -1.0630891832671529e-02  -8.3005276766155295e-03  -6.0037308096781957e-03  -3.7888046312177688e-03  -1.6919501794437288e-03  2.6247015875592144e-04  2.0600175643359035e-03  3.6928494838161844e-03  5.1554593928040213e-03  6.4402353321550828e-03  7.5338551677053382e-03  8.4156942091172908e-03  9.0593006083880597e-03  9.4374136106523971e-03  9.5298994779828925e-03  9.3326043540066708e-03  8.8641003863096438e-03  8.1674097133740374e-03  7.3053928986060333e-03  6.3510026923406914e-03  5.3756544841182486e-03  4.4393703959895343e-03  3.5850838551312169e-03  2.8375309489958767e-03  2.2055968731344937e-03  1.6863656706890416e-03  1.2693497313733656e-03  9.4001970593287905e-04  6.8238291899462274e-04  4.8073699718762924e-04  3.2083943371378755e-04  1.9069004245586248e-04  8.1041131788069321e-05  -1.4301649780115674e-05  -9.8334980840261222e-05  -1.7080428849032059e-04  -2.2816669229597036e-04  -2.6351449452374233e-04  -2.6658481164475113e-04  -2.2464038417697410e-04  -1.2923104211390657e-04  5.5651787142761846e-07  2.3497623672414269e-05  -5.2617071377647433e-05  -3.0317297564047622e-04  -6.5208424711779946e-04  -1.0298121863689248e-03  -1.3848100730043734e-03  -1.6784694569270231e-03  -1.8840542434380651e-03  -1.9872217065693091e-03  -1.9862656161556786e-03  -1.8911269593877920e-03  -1.7210295932661101e-03  -1.5011308428130767e-03  -1.2588177599596967e-03  -1.0202723257019223e-03  -8.0775535337521717e-04  -6.3781410982468060e-04  -5.2038735935060296e-04  -4.5862438431859727e-04  -4.4918285068745945e-04  -4.8282361446886615e-04  -5.4524409265306422e-04  -6.1821902868773051e-04  -6.8116470615451697e-04  -7.1314330016434885e-04  -6.9507564733384394e-04  -6.1163004052521344e-04  -4.5208504334100696e-04  -2.0961372014190516e-04  1.2103260618476683e-04  5.4671915443431666e-04  1.0787040054700007e-03  1.7337049196764548e-03  2.5326914068445725e-03  3.4979012499149406e-03  4.6492707892487042e-03  6.0013277894395223e-03  7.5607748021800474e-03  9.3242650168302091e-03  1.1276101987646366e-02  1.3386363982025438e-02  1.5610051154402369e-02  1.7887567018650439e-02  2.0146952444488934e-02  2.2308149081320033e-02  2.4288880790079358e-02  2.6011210850388107e-02  2.7407681892414337e-02  2.8426045281575229e-02  2.9031930258800749e-02  2.9209285844253443e-02  2.8958875245408171e-02  2.8295396122357999e-02  2.7243896337544229e-02  2.5836086771827194e-02  2.4106993106989424e-02  2.2092208484388944e-02  1.9825854444953855e-02  1.7339247073417621e-02  1.4660199867672035e-02  1.1812865143555371e-02  8.8180108826356931e-03  5.6936397670029242e-03  2.4558730261727986e-03  -8.7996238679323208e-04  -4.2980925079319290e-03  -7.7809452204885589e-03  -1.1307736737267284e-02  -1.4853055806829904e-02  -1.8385528056755696e-02  -2.1866671795827110e-02  -2.5250090378106858e-02  -2.8481176826863321e-02  -3.1497525268002133e-02  -3.4230238924602120e-02  -3.6606281490887675e-02  -3.8551928737367853e-02  -3.9997233580961654e-02  -4.0881232843384741e-02  -4.1157420017473106e-02  -4.0798833471095350e-02  -3.9802014225072686e-02  -3.8189125289928211e-02  -3.6007718253039722e-02  -3.3327968037630440e-02  -3.0237607311190885e-02  -2.6835181678080144e-02  -2.3222515372864252e-02  -1.9497364303582534e-02  -1.5747138057466172e-02  -1.2044354662556534e-02  -8.4442371461541828e-03  -4.9846413109955173e-03  -1.6883422323565340e-03  1.4324321870738666e-03  4.3695262958886576e-03  7.1110795965168673e-03  9.6336026927710799e-03  1.1895700024571684e-02  1.3835769759480469e-02  1.5376033658040720e-02  1.6434254450164904e-02  1.6942190593957126e-02  1.6866613724924595e-02  1.6225994774689577e-02  1.5095796721405048e-02  1.3598895842728611e-02  1.1883741946442063e-02  1.0097972607967147e-02  8.3662060624170621e-03  6.7775125092834083e-03  5.3832198713791145e-03  4.2021324808974502e-03  3.2291329882594131e-03  2.4439632380910377e-03  1.8185095344539551e-03  1.3221842596853012e-03  9.2564889760075799e-04  6.0328029797213501e-04  3.3471230941136440e-04  1.0568982578698964e-04  -9.1574487956269182e-05  -2.5836291106578671e-04  -3.8958003725485349e-04  -4.7399669611965733e-04  -4.9486408817880315e-04  -4.3212608532372033e-04  -2.6883350544663361e-04  -8.3130243979677548e-06  2.7583286815754588e-05  -1.9453904851770662e-04  -6.3387578234314458e-04  -1.2009089794868624e-03  -1.8004187146234065e-03  -2.3556145920632008e-03  -2.8071151814393503e-03  -3.1141999866753129e-03  -3.2562773756429565e-03  -3.2329510838095760e-03  -3.0619024338363150e-03  -2.7747195873137841e-03  -2.4114345765795442e-03  -2.0147626250069219e-03  -1.6249311214169384e-03  -1.2756750707511228e-03  -9.9160992715112417e-04  -7.8688496176650081e-04  -6.6483701380464410e-04  -6.1833006628188606e-04  -6.3056803687321344e-04  -6.7635282362774247e-04  -7.2392858879668370e-04  -7.3758104643247924e-04  -6.8094966898845440e-04  -5.2057456926567105e-04  -2.2872433017819555e-04  2.1563571739444899e-04  8.2846888678270148e-04  1.6245846035076407e-03  2.6222829097681476e-03  3.8464185577707466e-03  5.3279923509831116e-03  7.0999257954724318e-03  9.1904583478454472e-03  1.1616271336652434e-02  1.4376634970025247e-02  1.7448881606834953e-02  2.0785227895636360e-02  2.4311197874616951e-02  2.7926538019175037e-02  3.1509805315351996e-02  3.4926922965588192e-02  3.8042650809501442e-02  4.0732964314585389e-02  4.2895978883803657e-02  4.4459429512283620e-02  4.5383693358444714e-02  4.5660491023996268e-02  4.5308284105919708e-02  4.4365786432706091e-02  4.2884959446030838e-02  4.0924531894067598e-02  3.8544659073633990e-02  3.5802955495417101e-02  3.2751864812424064e-02  2.9437179304035416e-02  2.5897465697246873e-02  2.2164160220882190e-02  1.8262134243616134e-02  1.4210581353152202e-02  1.0024124585445954e-02  5.7140824700009909e-03  1.2898625078638672e-03  -3.2395300218227103e-03  -7.8638708626365926e-03  -1.2569987457352187e-02  -1.7339937345772216e-02  -2.2149133294122665e-02  -2.6964488784342013e-02  -3.1742703318060166e-02  -3.6428861820346908e-02  -4.0955579733970189e-02  -4.5242975688786442e-02  -4.9199780165479365e-02  -5.2725871598187805e-02  -5.5716448213039400e-02  -5.8067876507536947e-02  -5.9685002418353006e-02  -6.0489387458553617e-02  -6.0427593701863472e-02  -5.9478370372814164e-02  -5.7657492733501771e-02  -5.5019156083310469e-02  -5.1653267078070698e-02  -4.7678647361950738e-02  -4.3232925000730726e-02  -3.8460533926430576e-02  -3.3500582746314102e-02  -2.8476295769920314e-02  -2.3487317955815646e-02  -1.8605581129244382e-02  -1.3874869180523887e-02  -9.3138581386393946e-03  -4.9222789168713475e-03  -6.8985175294959070e-04  3.3924297054630085e-03  7.3194473489079804e-03  1.1059106145919781e-02  1.4542182752869934e-02  1.7658682337651752e-02  2.0264824923118312e-02  2.2203327332156703e-02  2.3335758085111510e-02  2.3579980602392119e-02  2.2940586072126252e-02  2.1519609445133429e-02  1.9501153165399143e-02  1.7114577743726222e-02  1.4590055402169809e-02  1.2121740950198885e-02  9.8476486170675556e-03  7.8466936527588522e-03  6.1475029541136822e-03  4.7422586586918503e-03  3.6005855402304133e-03  2.6810322591160319e-03  1.9395675985613395e-03  1.3354023733592498e-03  8.3467741232396515e-04  4.1252888237904923e-04  5.3978136972460545e-05  -2.4595571143289042e-04  -4.8259457840098226e-04  -6.4221895637245666e-04  -7.0310477313570820e-04  -6.3748438762257706e-04  -4.1425405013701338e-04  -1.7760505324171165e-05  3.0399372953092113e-05  -4.0808051251920748e-04  -1.0925570159559255e-03  -1.9202960504118339e-03  -2.7710930982794363e-03  -3.5421464122881606e-03  -4.1526736511537411e-03  -4.5484702560186574e-03  -4.7047654988402830e-03  -4.6258895517293785e-03  -4.3413490114658469e-03  -3.8990241012257119e-03  -3.3568946609420281e-03  -2.7748164191124087e-03  -2.2075245047635745e-03  -1.6994842208675166e-03  -1.2816723132716159e-03  -9.6999924386278157e-04  -7.6492644353399184e-04  -6.5188313167107825e-04  -6.0229702908304729e-04  -5.7533094594838384e-04  -5.2061653293773800e-04  -3.8221903822720953e-04  -1.0363336309028840e-04  3.6711739935768725e-04  1.0738635387510047e-03  2.0517499058435801e-03  3.3303508854203912e-03  4.9391410070185344e-03  6.9122553999753575e-03  9.2890981815091887e-03  1.2109057640215649e-02  1.5401448237310706e-02  1.9173817473303559e-02  2.3401832557653088e-02  2.8022514641386234e-02  3.2931282958556803e-02  3.7983608489316090e-02  4.3002732198990992e-02  4.7793871361511052e-02  5.2163130841324859e-02  5.5937408283098219e-02  5.8980947839346591e-02  6.1205227864147622e-02  6.2571010970816479e-02  6.3083570690848204e-02  6.2783468130289344e-02  6.1735543969248782e-02  6.0018297443184355e-02  5.7714998677382716e-02  5.4907084478785582e-02  5.1669806277947247e-02  4.8069771863305064e-02  4.4163905706020613e-02  3.9999371840927479e-02  3.5614090934501692e-02  3.1037589533958129e-02  2.6292016907283080e-02  2.1393240596777382e-02  1.6351985388765811e-02  1.1175014267367545e-02  5.8663701990454191e-03  4.2870806617415939e-04  -5.1352498878352460e-03  -1.0821103135295424e-02  -1.6620981231283409e-02  -2.2521560557280797e-02  -2.8501901694090080e-02  -3.4531156163912752e-02  -4.0566242056906510e-02  -4.6549655568338830e-02  -5.2407666962418865e-02  -5.8049237969953489e-02  -6.3366078678188664e-02  -6.8234310147722160e-02  -7.2518183704113948e-02  -7.6076188379233314e-02  -7.8769626551639146e-02  -8.0473340432722335e-02  -8.1087761747071455e-02  -8.0550915680280194e-02  -7.8848578371282910e-02  -7.6020630986301518e-02  -7.2161918696258681e-02  -6.7416662856524368e-02  -6.1966597508780523e-02  -5.6014255583890830e-02  -4.9763868190452344e-02  -4.3402836479505415e-02  -3.7086529434388921e-02  -3.0928340908557450e-02  -2.4995820658292315e-02  -1.9312683397017989e-02  -1.3865904218557082e-02  -8.6170000791531854e-03  -3.5167793684368520e-03  1.4770589331882047e-03  6.3804790553955680e-03  1.1163928799703805e-02  1.5737278975282130e-02  1.9944481233728318e-02  2.3574092690809144e-02  2.6389630967170629e-02  2.8177796093352664e-02  2.8803880655524583e-02  2.8256199494882020e-02  2.6661017090993080e-02  2.4259551289505400e-02  2.1355113002524333e-02  1.8251069138142624e-02  1.5201100049944790e-02  1.2383394697381042e-02  9.8981692139612203e-03  7.7804299488512425e-03  6.0188450983741345e-03  4.5743293874083418e-03  3.3952946346860117e-03  2.4288149076517693e-03  1.6280465969284873e-03  9.5660523037298742e-04  3.9066574831979746e-04  -8.0478789044028640e-05  -4.5475663298040123e-04  -7.1807909133358094e-04  -8.4525671777909827e-04  -8.0079858930886486e-04  -5.3879781147387349e-04  -2.6794684767559839e-05  3.2991975710458165e-05  -6.9121906396236955e-04  -1.6817608727922231e-03  -2.8171332100943749e-03  -3.9490083504896013e-03  -4.9464773131490773e-03  -5.7067266434417214e-03  -6.1636652625347167e-03  -6.2922757748451680e-03  -6.1072500650982608e-03  -5.6561127973920027e-03  -5.0085488098418453e-03  -4.2443648805932273e-03  -3.4423283037291977e-03  -2.6713365282280848e-03  -1.9844269128717943e-03  -1.4153819772941051e-03  -9.7728442114279482e-04  -6.6233198092152277e-04  -4.4245701043608385e-04  -2.7069383937747152e-04  -8.3637944923322069e-05  1.9447957572477260e-04  6.4586190904685912e-04  1.3519588833052086e-03  2.3867325791158364e-03  3.8127437321952172e-03  5.6817716648208645e-03  8.0394482101956710e-03  1.0930520724568685e-02  1.4399851738322408e-02  1.8485720871049095e-02  2.3205934668522409e-02  2.8541167707927872e-02  3.4421081089324485e-02  4.0716909634620942e-02  4.7242401365560072e-02  5.3764515525917385e-02  6.00240821835018