<?xml version="1.0"?>
<VTKFile type="UnstructuredGrid"  version="0.1"  >
<UnstructuredGrid>
<Piece  NumberOfPoints="16641" NumberOfCells="16384">
<Points>
<DataArray  type="Float64"  NumberOfComponents="3"  format="ascii">0 0 0  0.0078125 0 0  0.015625 0 0  0.0234375 0 0  0.03125 0 0  0.0390625 0 0  0.046875 0 0  0.0546875 0 0  0.0625 0 0  0.0703125 0 0  0.078125 0 0  0.0859375 0 0  0.09375 0 0  0.1015625 0 0  0.109375 0 0  0.1171875 0 0  0.125 0 0  0.1328125 0 0  0.140625 0 0  0.1484375 0 0  0.15625 0 0  0.1640625 0 0  0.171875 0 0  0.1796875 0 0  0.1875 0 0  0.1953125 0 0  0.203125 0 0  0.2109375 0 0  0.21875 0 0  0.2265625 0 0  0.234375 0 0  0.2421875 0 0  0.25 0 0  0.2578125 0 0  0.265625 0 0  0.2734375 0 0  0.28125 0 0  0.2890625 0 0  0.296875 0 0  0.3046875 0 0  0.3125 0 0  0.3203125 0 0  0.328125 0 0  0.3359375 0 0  0.34375 0 0  0.3515625 0 0  0.359375 0 0  0.3671875 0 0  0.375 0 0  0.3828125 0 0  0.390625 0 0  0.3984375 0 0  0.40625 0 0  0.4140625 0 0  0.421875 0 0  0.4296875 0 0  0.4375 0 0  0.4453125 0 0  0.453125 0 0  0.4609375 0 0  0.46875 0 0  0.4765625 0 0  0.484375 0 0  0.4921875 0 0  0.5 0 0  0.5078125 0 0  0.515625 0 0  0.5234375 0 0  0.53125 0 0  0.5390625 0 0  0.546875 0 0  0.5546875 0 0  0.5625 0 0  0.5703125 0 0  0.578125 0 0  0.5859375 0 0  0.59375 0 0  0.6015625 0 0  0.609375 0 0  0.6171875 0 0  0.625 0 0  0.6328125 0 0  0.640625 0 0  0.6484375 0 0  0.65625 0 0  0.6640625 0 0  0.671875 0 0  0.6796875 0 0  0.6875 0 0  0.6953125 0 0  0.703125 0 0  0.7109375 0 0  0.71875 0 0  0.7265625 0 0  0.734375 0 0  0.7421875 0 0  0.75 0 0  0.7578125 0 0  0.765625 0 0  0.7734375 0 0  0.78125 0 0  0.7890625 0 0  0.796875 0 0  0.8046875 0 0  0.8125 0 0  0.8203125 0 0  0.828125 0 0  0.8359375 0 0  0.84375 0 0  0.8515625 0 0  0.859375 0 0  0.8671875 0 0  0.875 0 0  0.8828125 0 0  0.890625 0 0  0.8984375 0 0  0.90625 0 0  0.9140625 0 0  0.921875 0 0  0.9296875 0 0  0.9375 0 0  0.9453125 0 0  0.953125 0 0  0.9609375 0 0  0.96875 0 0  0.9765625 0 0  0.984375 0 0  0.9921875 0 0  1 0 0  0 0.0078125 0  0.0078125 0.0078125 0  0.015625 0.0078125 0  0.0234375 0.0078125 0  0.03125 0.0078125 0  0.0390625 0.0078125 0  0.046875 0.0078125 0  0.0546875 0.0078125 0  0.0625 0.0078125 0  0.0703125 0.0078125 0  0.078125 0.0078125 0  0.0859375 0.0078125 0  0.09375 0.0078125 0  0.1015625 0.0078125 0  0.109375 0.0078125 0  0.1171875 0.0078125 0  0.125 0.0078125 0  0.1328125 0.0078125 0  0.140625 0.0078125 0  0.1484375 0.0078125 0  0.15625 0.0078125 0  0.1640625 0.0078125 0  0.171875 0.0078125 0  0.1796875 0.0078125 0  0.1875 0.0078125 0  0.1953125 0.0078125 0  0.203125 0.0078125 0  0.2109375 0.0078125 0  0.21875 0.0078125 0  0.2265625 0.0078125 0  0.234375 0.0078125 0  0.2421875 0.0078125 0  0.25 0.0078125 0  0.2578125 0.0078125 0  0.265625 0.0078125 0  0.2734375 0.0078125 0  0.28125 0.0078125 0  0.2890625 0.0078125 0  0.296875 0.0078125 0  0.3046875 0.0078125 0  0.3125 0.0078125 0  0.3203125 0.0078125 0  0.328125 0.0078125 0  0.3359375 0.0078125 0  0.34375 0.0078125 0  0.3515625 0.0078125 0  0.359375 0.0078125 0  0.3671875 0.0078125 0  0.375 0.0078125 0  0.3828125 0.0078125 0  0.390625 0.0078125 0  0.3984375 0.0078125 0  0.40625 0.0078125 0  0.4140625 0.0078125 0  0.421875 0.0078125 0  0.4296875 0.0078125 0  0.4375 0.0078125 0  0.4453125 0.0078125 0  0.453125 0.0078125 0  0.4609375 0.0078125 0  0.46875 0.0078125 0  0.4765625 0.0078125 0  0.484375 0.0078125 0  0.4921875 0.0078125 0  0.5 0.0078125 0  0.5078125 0.0078125 0  0.515625 0.0078125 0  0.5234375 0.0078125 0  0.53125 0.0078125 0  0.5390625 0.0078125 0  0.546875 0.0078125 0  0.5546875 0.0078125 0  0.5625 0.0078125 0  0.5703125 0.0078125 0  0.578125 0.0078125 0  0.5859375 0.0078125 0  0.59375 0.0078125 0  0.6015625 0.0078125 0  0.609375 0.0078125 0  0.6171875 0.0078125 0  0.625 0.0078125 0  0.6328125 0.0078125 0  0.640625 0.0078125 0  0.6484375 0.0078125 0  0.65625 0.0078125 0  0.6640625 0.0078125 0  0.671875 0.0078125 0  0.6796875 0.0078125 0  0.6875 0.0078125 0  0.6953125 0.0078125 0  0.703125 0.0078125 0  0.7109375 0.0078125 0  0.71875 0.0078125 0  0.7265625 0.0078125 0  0.734375 0.0078125 0  0.7421875 0.0078125 0  0.75 0.0078125 0  0.7578125 0.0078125 0  0.765625 0.0078125 0  0.7734375 0.0078125 0  0.78125 0.0078125 0  0.7890625 0.0078125 0  0.796875 0.0078125 0  0.8046875 0.0078125 0  0.8125 0.0078125 0  0.8203125 0.0078125 0  0.828125 0.0078125 0  0.8359375 0.0078125 0  0.84375 0.0078125 0  0.8515625 0.0078125 0  0.859375 0.0078125 0  0.8671875 0.0078125 0  0.875 0.0078125 0  0.8828125 0.0078125 0  0.890625 0.0078125 0  0.8984375 0.0078125 0  0.90625 0.0078125 0  0.9140625 0.0078125 0  0.921875 0.0078125 0  0.9296875 0.0078125 0  0.9375 0.0078125 0  0.9453125 0.0078125 0  0.953125 0.0078125 0  0.9609375 0.0078125 0  0.96875 0.0078125 0  0.9765625 0.0078125 0  0.984375 0.0078125 0  0.9921875 0.0078125 0  1 0.0078125 0  0 0.015625 0  0.0078125 0.015625 0  0.015625 0.015625 0  0.0234375 0.015625 0  0.03125 0.015625 0  0.0390625 0.015625 0  0.046875 0.015625 0  0.0546875 0.015625 0  0.0625 0.015625 0  0.0703125 0.015625 0  0.078125 0.015625 0  0.0859375 0.015625 0  0.09375 0.015625 0  0.1015625 0.015625 0  0.109375 0.015625 0  0.1171875 0.015625 0  0.125 0.015625 0  0.1328125 0.015625 0  0.140625 0.015625 0  0.1484375 0.015625 0  0.15625 0.015625 0  0.1640625 0.015625 0  0.171875 0.015625 0  0.1796875 0.015625 0  0.1875 0.015625 0  0.1953125 0.015625 0  0.203125 0.015625 0  0.2109375 0.015625 0  0.21875 0.015625 0  0.2265625 0.015625 0  0.234375 0.015625 0  0.2421875 0.015625 0  0.25 0.015625 0  0.2578125 0.015625 0  0.265625 0.015625 0  0.2734375 0.015625 0  0.28125 0.015625 0  0.2890625 0.015625 0  0.296875 0.015625 0  0.3046875 0.015625 0  0.3125 0.015625 0  0.3203125 0.015625 0  0.328125 0.015625 0  0.3359375 0.015625 0  0.34375 0.015625 0  0.3515625 0.015625 0  0.359375 0.015625 0  0.3671875 0.015625 0  0.375 0.015625 0  0.3828125 0.015625 0  0.390625 0.015625 0  0.3984375 0.015625 0  0.40625 0.015625 0  0.4140625 0.015625 0  0.421875 0.015625 0  0.4296875 0.015625 0  0.4375 0.015625 0  0.4453125 0.015625 0  0.453125 0.015625 0  0.4609375 0.015625 0  0.46875 0.015625 0  0.4765625 0.015625 0  0.484375 0.015625 0  0.4921875 0.015625 0  0.5 0.015625 0  0.5078125 0.015625 0  0.515625 0.015625 0  0.5234375 0.015625 0  0.53125 0.015625 0  0.5390625 0.015625 0  0.546875 0.015625 0  0.5546875 0.015625 0  0.5625 0.015625 0  0.5703125 0.015625 0  0.578125 0.015625 0  0.5859375 0.015625 0  0.59375 0.015625 0  0.6015625 0.015625 0  0.609375 0.015625 0  0.6171875 0.015625 0  0.625 0.015625 0  0.6328125 0.015625 0  0.640625 0.015625 0  0.6484375 0.015625 0  0.65625 0.015625 0  0.6640625 0.015625 0  0.671875 0.015625 0  0.6796875 0.015625 0  0.6875 0.015625 0  0.6953125 0.015625 0  0.703125 0.015625 0  0.7109375 0.015625 0  0.71875 0.015625 0  0.7265625 0.015625 0  0.734375 0.015625 0  0.7421875 0.015625 0  0.75 0.015625 0  0.7578125 0.015625 0  0.765625 0.015625 0  0.7734375 0.015625 0  0.78125 0.015625 0  0.7890625 0.015625 0  0.796875 0.015625 0  0.8046875 0.015625 0  0.8125 0.015625 0  0.8203125 0.015625 0  0.828125 0.015625 0  0.8359375 0.015625 0  0.84375 0.015625 0  0.8515625 0.015625 0  0.859375 0.015625 0  0.8671875 0.015625 0  0.875 0.015625 0  0.8828125 0.015625 0  0.890625 0.015625 0  0.8984375 0.015625 0  0.90625 0.015625 0  0.9140625 0.015625 0  0.921875 0.015625 0  0.9296875 0.015625 0  0.9375 0.015625 0  0.9453125 0.015625 0  0.953125 0.015625 0  0.9609375 0.015625 0  0.96875 0.015625 0  0.9765625 0.015625 0  0.984375 0.015625 0  0.9921875 0.015625 0  1 0.015625 0  0 0.0234375 0  0.0078125 0.0234375 0  0.015625 0.0234375 0  0.0234375 0.0234375 0  0.03125 0.0234375 0  0.0390625 0.0234375 0  0.046875 0.0234375 0  0.0546875 0.0234375 0  0.0625 0.0234375 0  0.0703125 0.0234375 0  0.078125 0.0234375 0  0.0859375 0.0234375 0  0.09375 0.0234375 0  0.1015625 0.0234375 0  0.109375 0.0234375 0  0.1171875 0.0234375 0  0.125 0.0234375 0  0.1328125 0.0234375 0  0.140625 0.0234375 0  0.1484375 0.0234375 0  0.15625 0.0234375 0  0.1640625 0.0234375 0  0.171875 0.0234375 0  0.1796875 0.0234375 0  0.1875 0.0234375 0  0.1953125 0.0234375 0  0.203125 0.0234375 0  0.2109375 0.0234375 0  0.21875 0.0234375 0  0.2265625 0.0234375 0  0.234375 0.0234375 0  0.2421875 0.0234375 0  0.25 0.0234375 0  0.2578125 0.0234375 0  0.265625 0.0234375 0  0.2734375 0.0234375 0  0.28125 0.0234375 0  0.2890625 0.0234375 0  0.296875 0.0234375 0  0.3046875 0.0234375 0  0.3125 0.0234375 0  0.3203125 0.0234375 0  0.328125 0.0234375 0  0.3359375 0.0234375 0  0.34375 0.0234375 0  0.3515625 0.0234375 0  0.359375 0.0234375 0  0.3671875 0.0234375 0  0.375 0.0234375 0  0.3828125 0.0234375 0  0.390625 0.0234375 0  0.3984375 0.0234375 0  0.40625 0.0234375 0  0.4140625 0.0234375 0  0.421875 0.0234375 0  0.4296875 0.0234375 0  0.4375 0.0234375 0  0.4453125 0.0234375 0  0.453125 0.0234375 0  0.4609375 0.0234375 0  0.46875 0.0234375 0  0.4765625 0.0234375 0  0.484375 0.0234375 0  0.4921875 0.0234375 0  0.5 0.0234375 0  0.5078125 0.0234375 0  0.515625 0.0234375 0  0.5234375 0.0234375 0  0.53125 0.0234375 0  0.5390625 0.0234375 0  0.546875 0.0234375 0  0.5546875 0.0234375 0  0.5625 0.0234375 0  0.5703125 0.0234375 0  0.578125 0.0234375 0  0.5859375 0.0234375 0  0.59375 0.0234375 0  0.6015625 0.0234375 0  0.609375 0.0234375 0  0.6171875 0.0234375 0  0.625 0.0234375 0  0.6328125 0.0234375 0  0.640625 0.0234375 0  0.6484375 0.0234375 0  0.65625 0.0234375 0  0.6640625 0.0234375 0  0.671875 0.0234375 0  0.6796875 0.0234375 0  0.6875 0.0234375 0  0.6953125 0.0234375 0  0.703125 0.0234375 0  0.7109375 0.0234375 0  0.71875 0.0234375 0  0.7265625 0.0234375 0  0.734375 0.0234375 0  0.7421875 0.0234375 0  0.75 0.0234375 0  0.7578125 0.0234375 0  0.765625 0.0234375 0  0.7734375 0.0234375 0  0.78125 0.0234375 0  0.7890625 0.0234375 0  0.796875 0.0234375 0  0.8046875 0.0234375 0  0.8125 0.0234375 0  0.8203125 0.0234375 0  0.828125 0.0234375 0  0.8359375 0.0234375 0  0.84375 0.0234375 0  0.8515625 0.0234375 0  0.859375 0.0234375 0  0.8671
[...]
<PointData  Scalars="u_sol"> 
<DataArray  type="Float64"  Name="u_sol"  format="ascii">1.7205356741102980e-22  -4.7645603283054403e-22  5.4263048183478625e-22  -1.7177793781324130e-21  -4.1758810272119737e-22  2.9646153153900519e-21  -7.5174174068819155e-21  -2.6875246383284308e-21  -2.7162506294350946e-21  -3.5575383784680620e-20  1.5670109524204559e-20  -6.6758438516704652e-20  3.0242136785244974e-20  -6.6915602833089739e-20  1.6728900708272438e-20  -5.4210108598342990e-20  8.1315162929929767e-20  -7.4538899358378418e-20  1.8634724839594592e-20  2.4136137657562289e-19  -8.7445398456043297e-20  -1.8465318250143752e-19  4.6163295625359368e-20  3.2470181329066244e-19  -8.1175453322665611e-20  -9.4867690092481698e-20  7.7927031147395655e-20  -1.8714795922889733e-19  4.6786989807224309e-20  -6.4374503991326886e-20  -2.0074680849926937e-19  1.7355710007745249e-20  2.1250150699516453e-19  1.5246593050577406e-19  -2.5495691712354459e-19  6.3953634495659855e-19  -3.2251441211197523e-19  5.2854855908668322e-19  -5.1160790014159798e-19  4.2656029101879006e-19  -5.2429964130422331e-20  7.4538899358378394e-20  -1.2705494208814507e-19  -1.1540823906339847e-19  -7.9568157482700802e-20  6.7762635780344057e-21  -1.1011428314305909e-19  6.5051811047842142e-19  -3.7946996211670612e-19  9.0124305587857537e-19  -3.3373098121819438e-19  -2.6420810509433775e-19  7.1657332976488703e-19  1.4907779871675679e-19  -4.7095031867339108e-19  1.7887997915979890e-19  -3.6998064653560095e-19  9.8255821881498743e-19  -7.8774064094649932e-19  -2.3707658100259869e-19  7.0979044874195316e-19  -7.2506020284968061e-19  -1.4399560103323091e-19  8.0206241042450858e-19  4.5000570088517539e-19  1.0842021724855042e-19  -2.7105054312137623e-20  4.6532549050803059e-19  2.0892927911864383e-19  5.6242987697685629e-19  -8.9954898998406677e-19  8.8459592006217351e-19  -1.1272876276699291e-19  -8.6736173798840335e-19  1.0842021724855054e-19  6.5692699015491302e-19  -8.1475305103003012e-19  5.4887734982078806e-19  2.9646153153900579e-19  -2.1654251834389427e-19  8.1307715032582751e-19  -6.1663998560113036e-19  -6.2680438096817756e-20  1.9794101186148919e-19  -2.6632568746247283e-19  -1.6263032587282581e-19  -6.7762635780344051e-20  4.3093885739127405e-20  -1.0773471434781848e-20  3.9979955110402947e-19  1.1689054672109311e-19  -2.8971173774057261e-19  7.2427934435143067e-20  -1.4230153513872236e-19  -7.2844833463869877e-20  -1.3299159362731111e-19  3.3247898406827795e-20  -4.7433845046240789e-20  2.2869889575866104e-19  -1.3274594470250986e-19  -1.2944383969719795e-19  -1.7618285302889461e-19  -3.8963515573697796e-19  -3.9512423454397258e-19  -2.8068970173393477e-19  4.7772658225142481e-19  -1.1943164556285640e-19  -6.0857332026751342e-19  -2.2732743030304788e-19  2.4733362059825599e-19  1.0079692072326240e-19  -5.3434390683333401e-23  5.4223467221946233e-20  3.7269449679189197e-20  -9.0632525356209944e-20  9.4669166745468791e-20  1.1185797987432075e-19  -2.6681537838510485e-19  -1.0587911840676689e-21  8.4011427619896101e-21  -1.5652812846566235e-20  5.8868789834173789e-20  -1.4717197458543465e-20  -4.9941074848653847e-20  1.5873400501180627e-20  6.2733377656021536e-21  -3.2624003359091325e-21  2.3558103845510243e-21  -8.4703294725430523e-22  -1.5413007444772658e-07  7.6833086878629176e-07  3.5107910135374956e-06  8.0268035405457091e-06  1.4271915233204853e-05  2.2200169185336060e-05  3.1765089617081542e-05  4.2919468771407624e-05  5.5615463145862721e-05  6.9804598644860081e-05  8.5437795393612548e-05  1.0246538468455659e-04  1.2083712672495083e-04  1.4050222764528593e-04  1.6140935666880674e-04  1.8350666351454734e-04  2.0674179622335711e-04  2.3106191950054338e-04  2.5641373365378138e-04  2.8274349418277843e-04  3.0999703206608742e-04  3.3811977478202191e-04  3.6705676809533722e-04  3.9675269863758095e-04  4.2715191730655208e-04  4.5819846350857429e-04  4.8983609026624143e-04  5.2200829021348868e-04  5.5465832249943891e-04  5.8772924062225524e-04  6.2116392121409252e-04  6.5490509379833965e-04  6.8889537154038453e-04  7.2307728301333469e-04  7.5739330500035145e-04  7.9178589635550895e-04  8.2619753294537704e-04  8.6057074369380593e-04  8.9484814775282111e-04  9.2897249282272156e-04  9.6288669464502817e-04  9.9653387769211297e-04  1.0298574170778949e-03  1.0628009817142525e-03  1.0953085787382868e-03  1.1273245992359162e-03  1.1587938652877999e-03  1.1896616783638823e-03  1.2198738690934175e-03  1.2493768484376645e-03  1.2781176602929922e-03  1.3060440355524654e-03  1.3331044476546300e-03  1.3592481696484764e-03  1.3844253328041713e-03  1.4085869867996297e-03  1.4316851615134366e-03  1.4536729304551268e-03  1.4745044758644368e-03  1.4941351555114687e-03  1.5125215712305199e-03  1.5296216392204974e-03  1.5453946621456749e-03  1.5598014030709906e-03  1.5728041612665731e-03  1.5843668499168784e-03  1.5944550757702421e-03  1.6030362207653962e-03  1.6100795256719196e-03  1.6155561757823648e-03  1.6194393886942264e-03  1.6217045042206774e-03  1.6223290764695952e-03  1.6212929681309466e-03  1.6185784470133882e-03  1.6141702848714908e-03  1.6080558585656658e-03  1.6002252535976169e-03  1.5906713700648432e-03  1.5793900310781916e-03  1.5663800936875564e-03  1.5516435623611846e-03  1.5351857050649570e-03  1.5170151719888204e-03  1.4971441169680838e-03  1.4755883216483121e-03  1.4523673224431657e-03  1.4275045403354123e-03  1.4010274135721242e-03  1.3729675333059028e-03  1.3433607822348433e-03  1.3122474762947618e-03  1.2796725094580766e-03  1.2456855016946737e-03  1.2103409501509155e-03  1.1736983836038745e-03  1.1358225202487873e-03  1.0967834288786974e-03  1.0566566935159821e-03  1.0155235815566298e-03  9.7347121548882628e-04  9.3059274824825193e-04  8.8698754227344999e-04  8.4276135232512082e-04  7.9802651213389786e-04  7.5290212494146175e-04  7.0751425799987604e-04  6.6199614109367676e-04  6.1648836914817069e-04  5.7113910898534193e-04  5.2610431028531459e-04  4.8154792080564959e-04  4.3764210590184640e-04  3.9456747237831270e-04  3.5251329667783989e-04  3.1167775738156453e-04  2.7226817194525842e-04  2.3450123748240358e-04  1.9860327537288717e-04  1.6481047883572852e-04  1.3336916371777021e-04  1.0453601639279422e-04  7.8578352462390931e-05  5.5774318805218063e-05  3.6413260326203816e-05  2.0795366937680256e-05  9.2337844869385644e-06  2.0470803772741830e-06  -4.1303608822819570e-07  -3.0099798781926463e-07  1.5004712061282885e-06  6.8562976194153441e-06  1.5675675647362157e-05  2.7871566043445790e-05  4.3354159764233071e-05  6.2032669898327950e-05  8.3814907315376457e-05  1.0860744985192746e-04  1.3631564797053134e-04  1.6684367009737853e-04  2.0009453461745453e-04  2.3597014399440592e-04  2.7437131781955949e-04  3.1519782632231144e-04  3.5834842440973265e-04  4.0372088655927341e-04  4.5121204272737604e-04  5.0071781541743813e-04  5.5213325801328295e-04  6.0535259446518517e-04  6.6026926040069721e-04  7.1677594572255691e-04  7.7476463874909046e-04  8.3412667194762377e-04  8.9475276930815317e-04  9.5653309540217561e-04  1.0193573061701724e-03  1.0831146014801830e-03  1.1476937794994287e-03  1.2129832929207102e-03  1.2788713070851902e-03  1.3452457600434903e-03  1.4119944245971263e-03  1.4790049723628759e-03  1.5461650399030019e-03  1.6133622969648571e-03  1.6804845168739966e-03  1.7474196491254386e-03  1.8140558942185759e-03  1.8802817807816743e-03  1.9459862450328686e-03  2.0110587126250879e-03  2.0753891829233036e-03  2.1388683157630654e-03  2.2013875207402634e-03  2.2628390490828077e-03  2.3231160881556604e-03  2.3821128586516711e-03  2.4397247145213669e-03  2.4958482456958150e-03  2.5503813836575176e-03  2.6032235099152728e-03  2.6542755674396831e-03  2.7034401751172203e-03  2.7506217452813149e-03  2.7957266043802868e-03  2.8386631168426171e-03  2.8793418122011658e-03  2.9176755155390184e-03  2.9535794813204696e-03  2.9869715306719102e-03  3.0177721921782223e-03  3.0459048462615308e-03  3.0712958732101638e-03  3.0938748049266595e-03  3.1135744804651239e-03  3.1303312054288398e-03  3.1440849153007364e-03  3.1547793427800807e-03  3.1623621892001440e-03  3.1667853001027466e-03  3.1680048450467551e-03  3.1659815017290112e-03  3.1606806444971604e-03  3.1520725373353560e-03  3.1401325314051104e-03  3.1248412672246271e-03  3.1061848815716773e-03  3.0841552191960223e-03  3.0587500494291850e-03  3.0299732877804358e-03  2.9978352226094065e-03  2.9623527469673692e-03  2.9235495957002722e-03  2.8814565879086364e-03  2.8361118748604524e-03  2.7875611934550949e-03  2.7358581253376637e-03  2.6810643617648255e-03  2.6232499743247513e-03  2.5624936916154926e-03  2.4988831819876922e-03  2.4325153424591362e-03  2.3634965939105831e-03  2.2919431826735515e-03  2.2179814886229077e-03  2.1417483398883507e-03  2.0633913343007454e-03  1.9830691676908044e-03  1.9009519691589698e-03  1.8172216434369575e-03  1.7320722204623713e-03  1.6457102122888689e-03  1.5583549774548532e-03  1.4702390929336030e-03  1.3816087337871481e-03  1.2927240606440914e-03  1.2038596151183786e-03  1.1153047232800972e-03  1.0273639072805858e-03  9.4035730522026948e-04  8.5462109932696979e-04  7.7050795248094072e-04  6.8838745307697247e-04  6.0864656813892828e-04  5.3169010450898407e-04  4.5794117771142995e-04  3.8784168804112558e-04  3.2185280223542292e-04  2.6045544135063024e-04  2.0415076351012850e-04  1.5346066910314711e-04  1.0892820149025009e-04  7.1118278223231623e-05  4.0617068487796442e-05  1.8036221690687273e-05  3.9987227992493374e-06  -8.0683274881216806e-07  -4.4073440205079999e-07  2.1970415099471599e-06  1.0039093460885000e-05  2.2952284441178303e-05  4.0809067827583097e-05  6.3477852837919672e-05  9.0825673621098367e-05  1.2271753661637351e-04  1.5901665935865697e-04  1.9958447007810111e-04  2.4428067015423873e-04  2.9296327859261933e-04  3.4548868079650161e-04  4.0171167633757548e-04  4.6148552773646415e-04  5.2466201019367702e-04  5.9109146266495536e-04  6.6062284047237337e-04  7.3310376963558609e-04  8.0838060306427694e-04  8.8629847873159624e-04  9.6670137993025375e-04  1.0494321977007118e-03  1.1343327955117665e-03  1.2212440762675654e-03  1.3100060517104320e-03  1.4004579142857935e-03  1.4924381115333195e-03  1.5857844230669986e-03  1.6803340402060524e-03  1.7759236483181852e-03  1.8723895119366486e-03  1.9695675627126176e-03  2.0672934902650382e-03  2.1654028359902734e-03  2.2637310898948773e-03  2.3621137905153172e-03  2.4603866279893707e-03  2.5583855503449405e-03  2.6559468730727232e-03  2.7529073920504201e-03  2.8491044998869841e-03  2.9443763057567557e-03  3.0385617587940219e-03  3.1315007751202034e-03  3.2230343685764246e-03  3.3130047852360004e-03  3.4012556417721412e-03  3.4876320677575817e-03  3.5719808519741681e-03  3.6541505928115092e-03  3.7339918528353127e-03  3.8113573176071446e-03  3.8861019588389356e-03  3.9580832019665262e-03  4.0271610982285056e-03  4.0931985013372774e-03  4.1560612488315083e-03  4.2156183481997546e-03  4.2717421678672802e-03  4.3243086331388996e-03  4.3731974271928407e-03  4.4182921972214699e-03  4.4594807658170140e-03  4.4966553477012025e-03  4.5297127719003023e-03  4.5585547094674954e-03  4.5830879068574481e-03  4.6032244250585365e-03  4.6188818845905441e-03  4.6299837164772133e-03  4.6364594193045831e-03  4.6382448224782068e-03  4.6352823557938164e-03  4.6275213254379811e-03  4.6149181965372786e-03  4.5974368823760775e-03  4.5750490404054102e-03  4.5477343751668198e-03  4.5154809482576492e-03  4.4782854954655959e-03  4.4361537512031491e-03  4.3891007803737751e-03  4.3371513178045405e-03  4.2803401153815902e-03  4.2187122970270916e-03  4.1523237216586958e-03  4.0812413542744294e-03  4.0055436453084936e-03  3.9253209184055707e-03  3.8406757667635702e-03  3.7517234581970140e-03  3.6585923490757466e-03  3.5614243072958798e-03  3.4603751444421231e-03  3.3556150573033762e-03  3.2473290789052441e-03  3.1357175392257857e-03  3.0209965357628587e-03  2.9033984141233838e-03  2.7831722588068982e-03  2.6605843943572401e-03  2.5359188970576780e-03  2.4094781173453666e-03  2.2815832131214027e-03  2.1525746941317260e-03  2.0228129775922026e-03  1.8926789552272483e-03  1.7625745718849522e-03  1.6329234158818542e-03  1.5041713212156111e-03  1.3767869817618292e-03  1.2512625775396324e-03  1.1281144130835770e-03  1.0078835678937297e-03  8.9113655883161266e-04  7.7846601420875679e-04  6.7049135902137258e-04  5.6785951078739728e-04  4.7124558382820319e-04  3.8135360351244550e-04  2.9891721486275123e-04  2.2470042902605298e-04  1.5949822433716719e-04  1.0413765828209262e-04  5.9477011325315157e-05  2.6412195226024271e-05  5.8559954116789798e-06  -1.1816058495802667e-06  -5.7343912384122550e-07  2.8585527489893122e-06  1.3061629024440388e-05  2.9862351259864975e-05  5.3094674439248085e-05  8.2587316073830927e-05  1.1816723542529015e-04  1.5965877910049578e-04  2.0688398317720587e-04  2.5966256627142685e-04  3.1781200628711850e-04  3.8114759548213564e-04  4.4948250220793937e-04  5.2262783205544062e-04  6.0039269074740084e-04  6.8258424853228391e-04  7.6900780648589569e-04  8.5946686490506405e-04  9.5376319399341340e-04  1.0516969069985609e-03  1.1530665359418268e-03  1.2576691100640140e-03  1.3653002370983029e-03  1.4757541874719120e-03  1.5888239815311713e-03  1.7043014798795737e-03  1.8219774769147839e-03  1.9416417976480744e-03  2.0630833978879846e-03  2.1860904678690611e-03  2.3104505394059990e-03  2.4359505966534169e-03  2.5623771905518076e-03  2.6895165570405329e-03  2.8171547391195252e-03  2.9450777128420718e-03  3.0730715173221137e-03  3.2009223888404227e-03  3.3284168991352318e-03  3.4553420979641304e-03  3.5814856600252130e-03  3.7066360363268930e-03  3.8305826100971077e-03  3.9531158573241658e-03  4.0740275120227072e-03  4.1931107363201679e-03  4.3101602954600977e-03  4.4249727378208826e-03  4.5373465800494185e-03  4.6470824974113659e-03  4.7539835194610278e-03  4.8578552311356092e-03  4.9585059793803912e-03  5.0557470854130405e-03  5.1493930627370512e-03  5.2392618410160982e-03  5.3251749959230274e-03  5.4069579850786814e-03  5.4844403901983104e-03  5.5574561655644264e-03  5.6258438929475789e-03  5.6894470430980089e-03  5.7481142439335681e-03  5.8016995555507152e-03  5.8500627521883919e-03  5.8930696112753332e-03  5.9305922096951234e-03  5.9625092274038288e-03  5.9887062585384319e-03  6.0090761301559706e-03  6.0235192287454390e-03  6.0319438346572146e-03  6.0342664645967031e-03  6.0304122223313597e-03  6.0203151577628193e-03  6.0039186345178632e-03  5.9811757062149676e-03  5.9520495015651098e-03  5.9165136184684544e-03  5.8745525272708675e-03  5.8261619833470208e-03  5.7713494491791134e-03  5.7101345261034945e-03  5.6425493958995720e-03  5.5686392723985146e-03  5.4884628632920788e-03  5.4020928423243221e-03  5.3096163320523410e-03  5.2111353973646381e-03  5.1067675499487705e-03  4.9966462639029850e-03  4.8809215026892746e-03  4.7597602576284525e-03  4.6333470981404631e-03  4.5018847339367207e-03  4.3655945893732008e-03  4.2247173901768329e-03  4.0795137627597953e-03  3.9302648463391014e-03  3.7772729180814641e-03  3.6208620314951436e-03  3.4613786682926675e-03  3.2991924039490789e-03  3.1346965871812496e-03  2.9683090335731882e-03  2.8004727335704982e-03  2.6316565750637796e-03  2.4623560807747842e-03  2.2930941606500790e-03  2.1244218794534329e-03  1.9569192397284334e-03  1.7911959802748812e-03  1.6278923902430912e-03  1.4676801388941077e-03  1.3112631209983888e-03  1.1593783177296531e-03  1.0127966727898005e-03  8.7232398318659121e-04  7.3880180421079906e-04  6.1310836628160705e-04  4.9615950649912208e-04  3.8890959619844738e-04  2.9235252382562503e-04  2.0752249960839019e-04  1.3549554279455918e-04  7.7388435416460183e-05  3.4367158756809238e-05  7.6199574941356456e-06  -1.5375539354823893e-06  -6.9921860559138247e-07  3.4855399901026942e-06  1.5926391379969967e-05  3.6411647206730104e-05  6.4738739841954548e-05  1.0069874977322651e-04  1.4408064202608951e-04  1.9467021620842462e-04  2.5225047092483589e-04  3.1660159014377799e-04  3.8750103300936434e-04  4.6472359815856695e-04  5.4804149710315560e-04  6.3722442753331174e-04  7.3203964920893854e-04  8.3225206198633817e-04  9.3762428637196235e-04  1.0479167467566243e-03  1.1628877575270173e-03  1.2822936122176855e-03  1.4058886758553252e-03  1.5334254806328119e-03  1.6646548250400263e-03  1.7993258765699833e-03  1.9371862781123463e-03  2.0779822581415072e-03  2.2214587448029155e-03  2.3673594839987494e-03  2.5154271615724934e-03  2.6654035296908149e-03  2.8170295375209153e-03  2.9700454663012673e-03  3.1241910689040714e-03  3.2792057139884190e-03  3.4348285348437765e-03  3.5907985830245935e-03  3.7468549868777791e-03  3.9027371150663036e-03  4.0581847451933023e-03  4.2129382376326508e-03  4.3667387146735653e-03  4.5193282450882184e-03  4.6704500342332842e-03  4.8198486197976748e-03  4.9672700733110267e-03  5.1124622075286461e-03  5.2551747898111753e-03  5.3951597616186016e-03  5.5321714642404254e-03  5.6659668708857244e-03  5.7963058252589366e-03  5.9229512867489328e-03  6.0456695823616529e-03  6.1642306655277663e-03  6.2784083819200443e-03  6.3879807424163043e-03  6.4927302033468163e-03  6.5924439541667360e-03  6.6869142126968206e-03  6.7759385280776524e-03  6.8593200915853612e-03  6.9368680554588134e-03  7.0083978598908959e-03  7.0737315683391568e-03  7.1326982113129999e-03  7.1851341387978657e-03  7.2308833814789444e-03  7.2697980209296634e-03  7.3017385689330859e-03  7.3265743561066327e-03  7.3441839300037639e-03  7.3544554628685865e-03  7.3572871692225246e-03  7.3525877334646760e-03  7.3402767476709405e-03  7.3202851597791614e-03  7.2925557323514183e-03  7.2570435121066092e-03  7.2137163104207900e-03  7.1625551949943394e-03  7.1035549928897190e-03  7.0367248051455269e-03  6.9620885331766191e-03  6.8796854171728596e-03  6.7895705867128285e-03  6.6918156238115088e-03  6.5865091386252770e-03  6.4737573580401324e-03  6.3536847273728747e-03  6.2264345254187279e-03  6.0921694930817782e-03  5.9510724758286672e-03  5.8033470802091392e-03  5.6492183446907101e-03  5.4889334250579971e-03  5.3227622946308648e-03  5.1509984595585322e-03  4.9739596894500405e-03  4.7919887636046011e-03  4.6054542331075386e-03  4.4147511990603018e-03  4.2203021072143776e-03  4.0225575592803724e-03  3.8219971411834826e-03  3.6191302685357704e-03  3.4144970495929936e-03  3.2086691659592740e-03  3.0022507712954222e-03  2.7958794082757299e-03  2.5902269440223149e-03  2.3860005242237730e-03  2.1839435461141104e-03  1.9848366504463038e-03  1.7894987325374305e-03  1.5987879723895024e-03  1.4136028837809704e-03  1.2348833821308467e-03  1.0636118706429292e-03  9.0081434453884483e-04  7.4756151113073148e-04  6.0496993018732041e-04  4.7420315327303996e-04  3.5647293694782714e-04  2.5304024754921198e-04  1.6521711337913535e-04  9.4365396302859339e-05  4.1907163192406159e-05  9.2919107101622153e-06  -1.8749360050629181e-06  -8.1818276688121762e-07  4.0785532226596338e-06  1.8635913528455766e-05  4.2606007631939140e-05  7.5751700019759146e-05  1.1782845725273026e-04  1.6858929804768427e-04  2.2778355592914694e-04  2.9515730162967777e-04  3.7045332334267400e-04  4.5341122865691006e-04  5.4376751730701245e-04  6.4125566516949801e-04  7.4560620870191665e-04  8.5654683282257937e-04  9.7380246159204232e-04  1.0970953520668663e-03  1.2261451914395603e-03  1.3606691976475742e-03  1.5003822236087216e-03  1.6449968652374519e-03  1.7942235733866454e-03  1.9477707698526651e-03  2.1053449675748964e-03  2.2666508951559080e-03  2.4313916258243799e-03  2.5992687109599364e-03  2.7699823182968444e-03  2.9432313749221564e-03  3.1187137151831349e-03  3.2961262336183828e-03  3.4751650430273015e-03  3.6555256377930143e-03  3.8369030625744521e-03  4.0189920864845477e-03  4.2014873828724337e-03  4.3840837148289586e-03  4.5664761265364400e-03  4.7483601405848563e-03  4.9294319613788591e-03  5.1093886847612601e-03  5.2879285139808508e-03  5.4647509821343912e-03  5.6395571812142145e-03  5.8120499978954292e-03  5.9819343561986482e-03  6.1489174671659971e-03  6.3127090856910685e-03  6.4730217746450467e-03  6.6295711764439514e-03  6.7820762922042614e-03  6.9302597686362096e-03  7.073848