<?xml version="1.0"?>
<VTKFile type="UnstructuredGrid"  version="0.1"  >
<UnstructuredGrid>
<Piece  NumberOfPoints="16641" NumberOfCells="16384">
<Points>
<DataArray  type="Float64"  NumberOfComponents="3"  format="ascii">0 0 0  0.0078125 0 0  0.015625 0 0  0.0234375 0 0  0.03125 0 0  0.0390625 0 0  0.046875 0 0  0.0546875 0 0  0.0625 0 0  0.0703125 0 0  0.078125 0 0  0.0859375 0 0  0.09375 0 0  0.1015625 0 0  0.109375 0 0  0.1171875 0 0  0.125 0 0  0.1328125 0 0  0.140625 0 0  0.1484375 0 0  0.15625 0 0  0.1640625 0 0  0.171875 0 0  0.1796875 0 0  0.1875 0 0  0.1953125 0 0  0.203125 0 0  0.2109375 0 0  0.21875 0 0  0.2265625 0 0  0.234375 0 0  0.2421875 0 0  0.25 0 0  0.2578125 0 0  0.265625 0 0  0.2734375 0 0  0.28125 0 0  0.2890625 0 0  0.296875 0 0  0.3046875 0 0  0.3125 0 0  0.3203125 0 0  0.328125 0 0  0.3359375 0 0  0.34375 0 0  0.3515625 0 0  0.359375 0 0  0.3671875 0 0  0.375 0 0  0.3828125 0 0  0.390625 0 0  0.3984375 0 0  0.40625 0 0  0.4140625 0 0  0.421875 0 0  0.4296875 0 0  0.4375 0 0  0.4453125 0 0  0.453125 0 0  0.4609375 0 0  0.46875 0 0  0.4765625 0 0  0.484375 0 0  0.4921875 0 0  0.5 0 0  0.5078125 0 0  0.515625 0 0  0.5234375 0 0  0.53125 0 0  0.5390625 0 0  0.546875 0 0  0.5546875 0 0  0.5625 0 0  0.5703125 0 0  0.578125 0 0  0.5859375 0 0  0.59375 0 0  0.6015625 0 0  0.609375 0 0  0.6171875 0 0  0.625 0 0  0.6328125 0 0  0.640625 0 0  0.6484375 0 0  0.65625 0 0  0.6640625 0 0  0.671875 0 0  0.6796875 0 0  0.6875 0 0  0.6953125 0 0  0.703125 0 0  0.7109375 0 0  0.71875 0 0  0.7265625 0 0  0.734375 0 0  0.7421875 0 0  0.75 0 0  0.7578125 0 0  0.765625 0 0  0.7734375 0 0  0.78125 0 0  0.7890625 0 0  0.796875 0 0  0.8046875 0 0  0.8125 0 0  0.8203125 0 0  0.828125 0 0  0.8359375 0 0  0.84375 0 0  0.8515625 0 0  0.859375 0 0  0.8671875 0 0  0.875 0 0  0.8828125 0 0  0.890625 0 0  0.8984375 0 0  0.90625 0 0  0.9140625 0 0  0.921875 0 0  0.9296875 0 0  0.9375 0 0  0.9453125 0 0  0.953125 0 0  0.9609375 0 0  0.96875 0 0  0.9765625 0 0  0.984375 0 0  0.9921875 0 0  1 0 0  0 0.0078125 0  0.0078125 0.0078125 0  0.015625 0.0078125 0  0.0234375 0.0078125 0  0.03125 0.0078125 0  0.0390625 0.0078125 0  0.046875 0.0078125 0  0.0546875 0.0078125 0  0.0625 0.0078125 0  0.0703125 0.0078125 0  0.078125 0.0078125 0  0.0859375 0.0078125 0  0.09375 0.0078125 0  0.1015625 0.0078125 0  0.109375 0.0078125 0  0.1171875 0.0078125 0  0.125 0.0078125 0  0.1328125 0.0078125 0  0.140625 0.0078125 0  0.1484375 0.0078125 0  0.15625 0.0078125 0  0.1640625 0.0078125 0  0.171875 0.0078125 0  0.1796875 0.0078125 0  0.1875 0.0078125 0  0.1953125 0.0078125 0  0.203125 0.0078125 0  0.2109375 0.0078125 0  0.21875 0.0078125 0  0.2265625 0.0078125 0  0.234375 0.0078125 0  0.2421875 0.0078125 0  0.25 0.0078125 0  0.2578125 0.0078125 0  0.265625 0.0078125 0  0.2734375 0.0078125 0  0.28125 0.0078125 0  0.2890625 0.0078125 0  0.296875 0.0078125 0  0.3046875 0.0078125 0  0.3125 0.0078125 0  0.3203125 0.0078125 0  0.328125 0.0078125 0  0.3359375 0.0078125 0  0.34375 0.0078125 0  0.3515625 0.0078125 0  0.359375 0.0078125 0  0.3671875 0.0078125 0  0.375 0.0078125 0  0.3828125 0.0078125 0  0.390625 0.0078125 0  0.3984375 0.0078125 0  0.40625 0.0078125 0  0.4140625 0.0078125 0  0.421875 0.0078125 0  0.4296875 0.0078125 0  0.4375 0.0078125 0  0.4453125 0.0078125 0  0.453125 0.0078125 0  0.4609375 0.0078125 0  0.46875 0.0078125 0  0.4765625 0.0078125 0  0.484375 0.0078125 0  0.4921875 0.0078125 0  0.5 0.0078125 0  0.5078125 0.0078125 0  0.515625 0.0078125 0  0.5234375 0.0078125 0  0.53125 0.0078125 0  0.5390625 0.0078125 0  0.546875 0.0078125 0  0.5546875 0.0078125 0  0.5625 0.0078125 0  0.5703125 0.0078125 0  0.578125 0.0078125 0  0.5859375 0.0078125 0  0.59375 0.0078125 0  0.6015625 0.0078125 0  0.609375 0.0078125 0  0.6171875 0.0078125 0  0.625 0.0078125 0  0.6328125 0.0078125 0  0.640625 0.0078125 0  0.6484375 0.0078125 0  0.65625 0.0078125 0  0.6640625 0.0078125 0  0.671875 0.0078125 0  0.6796875 0.0078125 0  0.6875 0.0078125 0  0.6953125 0.0078125 0  0.703125 0.0078125 0  0.7109375 0.0078125 0  0.71875 0.0078125 0  0.7265625 0.0078125 0  0.734375 0.0078125 0  0.7421875 0.0078125 0  0.75 0.0078125 0  0.7578125 0.0078125 0  0.765625 0.0078125 0  0.7734375 0.0078125 0  0.78125 0.0078125 0  0.7890625 0.0078125 0  0.796875 0.0078125 0  0.8046875 0.0078125 0  0.8125 0.0078125 0  0.8203125 0.0078125 0  0.828125 0.0078125 0  0.8359375 0.0078125 0  0.84375 0.0078125 0  0.8515625 0.0078125 0  0.859375 0.0078125 0  0.8671875 0.0078125 0  0.875 0.0078125 0  0.8828125 0.0078125 0  0.890625 0.0078125 0  0.8984375 0.0078125 0  0.90625 0.0078125 0  0.9140625 0.0078125 0  0.921875 0.0078125 0  0.9296875 0.0078125 0  0.9375 0.0078125 0  0.9453125 0.0078125 0  0.953125 0.0078125 0  0.9609375 0.0078125 0  0.96875 0.0078125 0  0.9765625 0.0078125 0  0.984375 0.0078125 0  0.9921875 0.0078125 0  1 0.0078125 0  0 0.015625 0  0.0078125 0.015625 0  0.015625 0.015625 0  0.0234375 0.015625 0  0.03125 0.015625 0  0.0390625 0.015625 0  0.046875 0.015625 0  0.0546875 0.015625 0  0.0625 0.015625 0  0.0703125 0.015625 0  0.078125 0.015625 0  0.0859375 0.015625 0  0.09375 0.015625 0  0.1015625 0.015625 0  0.109375 0.015625 0  0.1171875 0.015625 0  0.125 0.015625 0  0.1328125 0.015625 0  0.140625 0.015625 0  0.1484375 0.015625 0  0.15625 0.015625 0  0.1640625 0.015625 0  0.171875 0.015625 0  0.1796875 0.015625 0  0.1875 0.015625 0  0.1953125 0.015625 0  0.203125 0.015625 0  0.2109375 0.015625 0  0.21875 0.015625 0  0.2265625 0.015625 0  0.234375 0.015625 0  0.2421875 0.015625 0  0.25 0.015625 0  0.2578125 0.015625 0  0.265625 0.015625 0  0.2734375 0.015625 0  0.28125 0.015625 0  0.2890625 0.015625 0  0.296875 0.015625 0  0.3046875 0.015625 0  0.3125 0.015625 0  0.3203125 0.015625 0  0.328125 0.015625 0  0.3359375 0.015625 0  0.34375 0.015625 0  0.3515625 0.015625 0  0.359375 0.015625 0  0.3671875 0.015625 0  0.375 0.015625 0  0.3828125 0.015625 0  0.390625 0.015625 0  0.3984375 0.015625 0  0.40625 0.015625 0  0.4140625 0.015625 0  0.421875 0.015625 0  0.4296875 0.015625 0  0.4375 0.015625 0  0.4453125 0.015625 0  0.453125 0.015625 0  0.4609375 0.015625 0  0.46875 0.015625 0  0.4765625 0.015625 0  0.484375 0.015625 0  0.4921875 0.015625 0  0.5 0.015625 0  0.5078125 0.015625 0  0.515625 0.015625 0  0.5234375 0.015625 0  0.53125 0.015625 0  0.5390625 0.015625 0  0.546875 0.015625 0  0.5546875 0.015625 0  0.5625 0.015625 0  0.5703125 0.015625 0  0.578125 0.015625 0  0.5859375 0.015625 0  0.59375 0.015625 0  0.6015625 0.015625 0  0.609375 0.015625 0  0.6171875 0.015625 0  0.625 0.015625 0  0.6328125 0.015625 0  0.640625 0.015625 0  0.6484375 0.015625 0  0.65625 0.015625 0  0.6640625 0.015625 0  0.671875 0.015625 0  0.6796875 0.015625 0  0.6875 0.015625 0  0.6953125 0.015625 0  0.703125 0.015625 0  0.7109375 0.015625 0  0.71875 0.015625 0  0.7265625 0.015625 0  0.734375 0.015625 0  0.7421875 0.015625 0  0.75 0.015625 0  0.7578125 0.015625 0  0.765625 0.015625 0  0.7734375 0.015625 0  0.78125 0.015625 0  0.7890625 0.015625 0  0.796875 0.015625 0  0.8046875 0.015625 0  0.8125 0.015625 0  0.8203125 0.015625 0  0.828125 0.015625 0  0.8359375 0.015625 0  0.84375 0.015625 0  0.8515625 0.015625 0  0.859375 0.015625 0  0.8671875 0.015625 0  0.875 0.015625 0  0.8828125 0.015625 0  0.890625 0.015625 0  0.8984375 0.015625 0  0.90625 0.015625 0  0.9140625 0.015625 0  0.921875 0.015625 0  0.9296875 0.015625 0  0.9375 0.015625 0  0.9453125 0.015625 0  0.953125 0.015625 0  0.9609375 0.015625 0  0.96875 0.015625 0  0.9765625 0.015625 0  0.984375 0.015625 0  0.9921875 0.015625 0  1 0.015625 0  0 0.0234375 0  0.0078125 0.0234375 0  0.015625 0.0234375 0  0.0234375 0.0234375 0  0.03125 0.0234375 0  0.0390625 0.0234375 0  0.046875 0.0234375 0  0.0546875 0.0234375 0  0.0625 0.0234375 0  0.0703125 0.0234375 0  0.078125 0.0234375 0  0.0859375 0.0234375 0  0.09375 0.0234375 0  0.1015625 0.0234375 0  0.109375 0.0234375 0  0.1171875 0.0234375 0  0.125 0.0234375 0  0.1328125 0.0234375 0  0.140625 0.0234375 0  0.1484375 0.0234375 0  0.15625 0.0234375 0  0.1640625 0.0234375 0  0.171875 0.0234375 0  0.1796875 0.0234375 0  0.1875 0.0234375 0  0.1953125 0.0234375 0  0.203125 0.0234375 0  0.2109375 0.0234375 0  0.21875 0.0234375 0  0.2265625 0.0234375 0  0.234375 0.0234375 0  0.2421875 0.0234375 0  0.25 0.0234375 0  0.2578125 0.0234375 0  0.265625 0.0234375 0  0.2734375 0.0234375 0  0.28125 0.0234375 0  0.2890625 0.0234375 0  0.296875 0.0234375 0  0.3046875 0.0234375 0  0.3125 0.0234375 0  0.3203125 0.0234375 0  0.328125 0.0234375 0  0.3359375 0.0234375 0  0.34375 0.0234375 0  0.3515625 0.0234375 0  0.359375 0.0234375 0  0.3671875 0.0234375 0  0.375 0.0234375 0  0.3828125 0.0234375 0  0.390625 0.0234375 0  0.3984375 0.0234375 0  0.40625 0.0234375 0  0.4140625 0.0234375 0  0.421875 0.0234375 0  0.4296875 0.0234375 0  0.4375 0.0234375 0  0.4453125 0.0234375 0  0.453125 0.0234375 0  0.4609375 0.0234375 0  0.46875 0.0234375 0  0.4765625 0.0234375 0  0.484375 0.0234375 0  0.4921875 0.0234375 0  0.5 0.0234375 0  0.5078125 0.0234375 0  0.515625 0.0234375 0  0.5234375 0.0234375 0  0.53125 0.0234375 0  0.5390625 0.0234375 0  0.546875 0.0234375 0  0.5546875 0.0234375 0  0.5625 0.0234375 0  0.5703125 0.0234375 0  0.578125 0.0234375 0  0.5859375 0.0234375 0  0.59375 0.0234375 0  0.6015625 0.0234375 0  0.609375 0.0234375 0  0.6171875 0.0234375 0  0.625 0.0234375 0  0.6328125 0.0234375 0  0.640625 0.0234375 0  0.6484375 0.0234375 0  0.65625 0.0234375 0  0.6640625 0.0234375 0  0.671875 0.0234375 0  0.6796875 0.0234375 0  0.6875 0.0234375 0  0.6953125 0.0234375 0  0.703125 0.0234375 0  0.7109375 0.0234375 0  0.71875 0.0234375 0  0.7265625 0.0234375 0  0.734375 0.0234375 0  0.7421875 0.0234375 0  0.75 0.0234375 0  0.7578125 0.0234375 0  0.765625 0.0234375 0  0.7734375 0.0234375 0  0.78125 0.0234375 0  0.7890625 0.0234375 0  0.796875 0.0234375 0  0.8046875 0.0234375 0  0.8125 0.0234375 0  0.8203125 0.0234375 0  0.828125 0.0234375 0  0.8359375 0.0234375 0  0.84375 0.0234375 0  0.8515625 0.0234375 0  0.859375 0.0234375 0  0.8671
[...]
<PointData  Scalars="v_sol"> 
<DataArray  type="Float64"  Name="v_sol"  format="ascii">2.6469779601696890e-22  1.5488865513546243e-07  3.0606843269964304e-07  4.5349813834827358e-07  5.9710659110503415e-07  7.3683014178147222e-07  8.7260953174611731e-07  1.0043886913686741e-06  1.1321138550453314e-06  1.2557331173783612e-06  1.3751961942132782e-06  1.4904543032454766e-06  1.6014601117177362e-06  1.7081677243167306e-06  1.8105326959630402e-06  1.9085120606900783e-06  2.0020643713413461e-06  2.0911497468752337e-06  2.1757299252232502e-06  2.2557683204131953e-06  2.3312300830971731e-06  2.4020821639165240e-06  2.4682933793356880e-06  2.5298344796804429e-06  2.5866782192195785e-06  2.6387994281662599e-06  2.6861750865410396e-06  2.7287843998323863e-06  2.7666088764456536e-06  2.7996324069184169e-06  2.8278413449076948e-06  2.8512245899549361e-06  2.8697736720400954e-06  2.8834828379405059e-06  2.8923491394274656e-06  2.8963725233030136e-06  2.8955559233266978e-06  2.8899053540388011e-06  2.8794300065258314e-06  2.8641423461440277e-06  2.8440582122456938e-06  2.8191969199267137e-06  2.7895813638431033e-06  2.7552381241165290e-06  2.7161975743704018e-06  2.6724939919342487e-06  2.6241656702433703e-06  2.5712550334782929e-06  2.5138087534772119e-06  2.4518778689589531e-06  2.3855179070936938e-06  2.3147890074674812e-06  2.2397560484667507e-06  2.1604887761373831e-06  2.0770619355426331e-06  1.9895554046831295e-06  1.8980543309921255e-06  1.8026492704803919e-06  1.7034363295391642e-06  1.6005173094817085e-06  1.4939998538389573e-06  1.3839975984590323e-06  1.2706303244769272e-06  1.1540241141712407e-06  1.0343115097798437e-06  9.1163167530303441e-07  7.8613056135687169e-07  6.5796107311714828e-07  5.2728324141241663e-07  3.9426439700538014e-07  2.5907934812156551e-07  1.2191056128241675e-07  -1.7051654521203392e-08  -1.5760896023250864e-07  -2.9955479569370387e-07  -4.4267418507341411e-07  -5.8674353873914085e-07  -7.3153045148291194e-07  -8.7679349706890077e-07  -1.0222820190342037e-06  -1.1677359176636465e-06  -1.3128854331226363e-06  -1.4574509246254418e-06  -1.6011426456294003e-06  -1.7436605149600119e-06  -1.8846938838058143e-06  -2.0239212985233704e-06  -2.1610102591793776e-06  -2.2956169737559220e-06  -2.4273861079641360e-06  -2.5559505305633244e-06  -2.6809310541524162e-06  -2.8019361713301847e-06  -2.9185617861505982e-06  -3.0303909408141905e-06  -3.1369935374985343e-06  -3.2379260552579344e-06  -3.3327312619079241e-06  -3.4209379208306124e-06  -3.5020604925846939e-06  -3.5755988312905118e-06  -3.6410378756820269e-06  -3.6978473347528170e-06  -3.7454813679681420e-06  -3.7833782599407627e-06  -3.8109600895857571e-06  -3.8276323937188232e-06  -3.8327838251325217e-06  -3.8257858052689346e-06  -3.8059921716375182e-06  -3.7727388203364094e-06  -3.7253433441750074e-06  -3.6631046672850793e-06  -3.5853026775363371e-06  -3.4911978589495919e-06  -3.3800309274781767e-06  -3.2510224757819886e-06  -3.1033726360189812e-06  -2.9362607759574846e-06  -2.7488452547458162e-06  -2.5402632849770909e-06  -2.3096309877559652e-06  -2.0560438057123093e-06  -1.7785776214277726e-06  -1.4762912682612644e-06  -1.1482323644494352e-06  -7.9344891252952632e-07  -4.1102450971868335e-07  5.2939559203394072e-22  -3.1763735522036272e-22  -7.6984802171759577e-07  -1.5212726645925318e-06  -2.2540385751782545e-06  -2.9678051708037069e-06  -3.6622603719894882e-06  -4.3371116116941886e-06  -4.9920809526081404e-06  -5.6269014433593356e-06  -6.2413151725774675e-06  -6.8350722017332394e-06  -7.4079300231245723e-06  -7.9596533233118381e-06  -8.4900139332744154e-06  -8.9987908963060433e-06  -9.4857706130628480e-06  -9.9507470390898875e-06  -1.0393521919572875e-05  -1.0813905051482131e-05  -1.1211714566856994e-05  -1.1586777233037998e-05  -1.1938928767061038e-05  -1.2268014162384061e-05  -1.2573888026641025e-05  -1.2856414929608881e-05  -1.3115469760774648e-05  -1.3350938096194071e-05  -1.3562716574331444e-05  -1.3750713280817164e-05  -1.3914848142013536e-05  -1.4055053327412175e-05  -1.4171273660884210e-05  -1.4263467040842104e-05  -1.4331604869388137e-05  -1.4375672490597728e-05  -1.4395669637975424e-05  -1.4391610891297214e-05  -1.4363526142897289e-05  -1.4311461073606791e-05  -1.4235477638434689e-05  -1.4135654562203421e-05  -1.4012087845240238e-05  -1.3864891279345205e-05  -1.3694196974157116e-05  -1.3500155894100300e-05  -1.3282938406117843e-05  -1.3042734838313456e-05  -1.2779756049727286e-05  -1.2494234011415090e-05  -1.2186422399005936e-05  -1.1856597196934409e-05  -1.1505057314569563e-05  -1.1132125214372721e-05  -1.0738147552352575e-05  -1.0323495830951671e-05  -9.8885670646456598e-06  -9.4337844583722527e-06  -8.9595980990958457e-06  -8.4664856606203994e-06  -7.9549531219807394e-06  -7.4255354995381713e-06  -6.8787975930220611e-06  -6.3153347458115487e-06  -5.7357736195907126e-06  -5.1407729836906426e-06  -4.5310245193003215e-06  -3.9072536388173635e-06  -3.2702203205756199e-06  -2.6207199592082920e-06  -1.9595842318764783e-06  -1.2876819806200841e-06  -6.0592011113657294e-07  8.4755491822373583e-08  7.8335903208256552e-07  1.4888638525319604e-06  2.2002014680847329e-06  2.9162605809251473e-06  3.6358860776678520e-06  4.3578780082170912e-06  5.0809905460091492e-06  5.8039309292528896e-06  6.5253583830561589e-06  7.2438830218781236e-06  7.9580647322139627e-06  8.6664120350645925e-06  9.3673809278917947e-06  1.0059373705748025e-05  1.0740737761226461e-05  1.1409764362878170e-05  1.2064687411782038e-05  1.2703682175841605e-05  1.3324864001537019e-05  1.3926287002713719e-05  1.4505942726001869e-05  1.5061758792575431e-05  1.5591597515790413e-05  1.6093254494352478e-05  1.6564457180602233e-05  1.7002863423605563e-05  1.7406059986501490e-05  1.7771561037948270e-05  1.8096806617156709e-05  1.8379161072198573e-05  1.8615911471416044e-05  1.8804265987538267e-05  1.8941352254550866e-05  1.9024215697238631e-05  1.9049817833649903e-05  1.9015034551115810e-05  1.8916654356744411e-05  1.8751376604257339e-05  1.8515809699883769e-05  1.8206469291917191e-05  1.7819776450820573e-05  1.7352055851084614e-05  1.6799533972070854e-05  1.6158337346060297e-05  1.5424490898589627e-05  1.4593916456460951e-05  1.3662431551526462e-05  1.2625748743981363e-05  1.1479475872794635e-05  1.0219117995905019e-05  8.8400825629249739e-06  7.3376908504851836e-06  5.7072032918801243e-06  3.9438693356025351e-06  2.0430572180511680e-06  -4.2351647362715261e-22  2.1175823681357508e-22  -3.4948203597641743e-06  -6.9060891308938967e-06  -1.0232477855382144e-05  -1.3472554241964355e-05  -1.6624942543850174e-05  -1.9688333801563998e-05  -2.2661473952886861e-05  -2.5543154166514694e-05  -2.8332204552406395e-05  -3.1027490510212003e-05  -3.3627910795412785e-05  -3.6132396690765616e-05  -3.8539911892016506e-05  -4.0849452865467086e-05  -4.3060049525643539e-05  -4.5170766136890355e-05  -4.7180702377181806e-05  -4.9088994523581335e-05  -5.0894816732678380e-05  -5.2597382397958470e-05  -5.4195945571890317e-05  -5.5689802444501981e-05  -5.7078292872629724e-05  -5.8360801956046882e-05  -5.9536761657731393e-05  -6.0605652466647564e-05  -6.1567005101784909e-05  -6.2420402256911092e-05  -6.3165480385637027e-05  -6.3801931526779373e-05  -6.4329505170088487e-05  -6.4748010162623006e-05  -6.5057316656068592e-05  -6.5257358095562943e-05  -6.5348133250373489e-05  -6.5329708287162872e-05  -6.5202218886268082e-05  -6.4965872401805987e-05  -6.4620950066104159e-05  -6.4167809239311043e-05  -6.3606885704740900e-05  -6.2938696010865749e-05  -6.2163839860540225e-05  -6.1283002548325350e-05  -6.0296957446715064e-05  -5.9206568541979475e-05  -5.8012793020528916e-05  -5.6716683906587318e-05  -5.5319392752017998e-05  -5.3822172379154334e-05  -5.2226379677584949e-05  -5.0533478455642183e-05  -4.8745042347627576e-05  -4.6862757777567894e-05  -4.4888426980576365e-05  -4.2823971082581236e-05  -4.0671433239546151e-05  -3.8432981837001100e-05  -3.6110913751039282e-05  -3.3707657671615038e-05  -3.1225777489210688e-05  -2.8667975745991663e-05  -2.6037097152344290e-05  -2.3336132170006183e-05  -2.0568220662720532e-05  -1.7736655615628794e-05  -1.4844886924430108e-05  -1.1896525255515653e-05  -8.8953459781327283e-06  -5.8452931697636026e-06  -2.7504836959726899e-06  3.8478863419090118e-07  3.5560488359016294e-06  6.7586364382930694e-06  9.9877010948029636e-06  1.3238198112966906e-05  1.6504883902288164e-05  1.9782311338942015e-05  2.3064825045970794e-05  2.6346556587447804e-05  2.9621419575570139e-05  3.2883104688871142e-05  3.6125074600427063e-05  3.9340558814519255e-05  4.2522548410189924e-05  4.5663790690338649e-05  4.8756783734744358e-05  5.1793770855472651e-05  5.4766734953144259e-05  5.7667392772393977e-05  6.0487189054981345e-05  6.3217290588898269e-05  6.5848580151711391e-05  6.8371650346637044e-05  7.0776797329526718e-05  7.3054014425105610e-05  7.5192985630791293e-05  7.7183079006508078e-05  7.9013339948613934e-05  8.0672484346761038e-05  8.2148891621951523e-05  8.3430597644593759e-05  8.4505287531650580e-05  8.5360288322032396e-05  8.5982561530282658e-05  8.6358695579115589e-05  8.6474898112566615e-05  8.6316988193274447e-05  8.5870388389573367e-05  8.5120116761884014e-05  8.4050778762854113e-05  8.2646559074022396e-05  8.0891213413332506e-05  7.8768060366994717e-05  7.6259973327741758e-05  7.3349372669077772e-05  7.0018218359999264e-05  6.6248003351838670e-05  6.2019748284375289e-05  5.7313998434927181e-05  5.2110824512630935e-05  4.6389830157445152e-05  4.0130171351454534e-05  3.3310597574971919e-05  2.5909532054527306e-05  1.7905222182324509e-05  9.2759513358981370e-06  -2.1175823681357629e-21  -2.4677509098101068e-21  -7.9297723654041214e-06  -1.5669927652472658e-05  -2.3217235311363769e-05  -3.0568561417070516e-05  -3.7720866996277273e-05  -4.4671224657268388e-05  -5.1416809770624738e-05  -5.7954889125439853e-05  -6.4282812305062169e-05  -7.0398006213168447e-05  -7.6297972108732925e-05  -8.1980284447344853e-05  -8.7442590989357028e-05  -9.2682613796266856e-05  -9.7698150858484788e-05  -1.0248707818153382e-04  -1.0704735221421532e-04  -1.1137701253965849e-04  -1.1547418477530882e-04  -1.1933708364468436e-04  -1.2296401619513983e-04  -1.2635338514383721e-04  -1.2950369233934462e-04  -1.3241354233035796e-04  -1.3508164603545712e-04  -1.3750682451005633e-04  -1.3968801280779644e-04  -1.4162426393491564e-04  -1.4331475289672553e-04  -1.4475878083598193e-04  -1.4595577926331129e-04  -1.4690531438020933e-04  -1.4760709149533272e-04  -1.4806095953512786e-04  -1.4826691564979186e-04  -1.4822510991593997e-04  -1.4793585013713888e-04  -1.4739960674395512e-04  -1.4661701779476486e-04  -1.4558889407911252e-04  -1.4431622432502098e-04  -1.4280018051211616e-04  -1.4104212329206657e-04  -1.3904360751821986e-04  -1.3680638788615525e-04  -1.3433242468697675e-04  -1.3162388967518962e-04  -1.2868317205304793e-04  -1.2551288457327239e-04  -1.2211586976207376e-04  -1.1849520626453590e-04  -1.1465421531423483e-04  -1.1059646732925033e-04  -1.0632578863653850e-04  -1.0184626832690388e-04  -9.7162265242534441e-05  -9.2278415099409232e-05  -8.7199637746679078e-05  -8.1931144565352065e-05  -7.6478446008451886e-05  -7.0847359284966939e-05  -6.5044016190005129e-05  -5.9074871083411698e-05  -5.2946709019368551e-05  -4.6666654029296009e-05  -4.0242177560621946e-05  -3.3681107073902098e-05  -2.6991634800890550e-05  -2.0182326666064266e-05  -1.3262131374284728e-05  -6.2403896673112561e-06  8.7315624819504888e-07  8.0683530983468731e-06  1.5334626762695251e-05  2.2660972314924707e-05  3.0035943880739501e-05  3.7447644310019287e-05  4.4883714660272798e-05  5.2331323488384270e-05  5.9777155947411560e-05  6.7207402685666600e-05  7.4607748544497517e-05  8.1963361051854675e-05  8.9258878708267978e-05  9.6478399061854573e-05  1.0360546656911908e-04  1.1062306023801836e-04  1.1751358104986062e-04  1.2425883915648687e-04  1.3084004084924306e-04  1.3723777529604022e-04  1.4343200104295197e-04  1.4940203227656329e-04  1.5512652484351186e-04  1.6058346202341335e-04  1.6575014005154370e-04  1.7060315338763326e-04  1.7511837972729034e-04  1.7927096475250096e-04  1.8303530661825749e-04  1.8638504017227914e-04  1.8929302090552828e-04  1.9173130863189846e-04  1.9367115089631061e-04  1.9508296611197220e-04  1.9593632642948399e-04  1.9619994034333660e-04  1.9584163504542403e-04  1.9482833854096284e-04  1.9312606155085749e-04  1.9069987923663227e-04  1.8751391280285272e-04  1.8353131105860112e-04  1.7871423206156423e-04  1.7302382503073667e-04  1.6642021281261106e-04  1.5886247533979849e-04  1.5030863476923217e-04  1.4071564339107067e-04  1.3003937606512436e-04  1.1823463005659616e-04  1.0525513700304218e-04  9.1053594811974832e-05  7.5581731898689055e-05  5.8790421573429043e-05  4.0629863058372911e-05  2.1049797407866887e-05  -1.2714880099180751e-20  8.2817575161856270e-21  -1.3991264389301898e-05  -2.7647678068375430e-05  -4.0963574974344009e-05  -5.3933503486322933e-05  -6.6552191623983929e-05  -7.8814532921037345e-05  -9.0715577391701482e-05  -1.0225052081492101e-04  -1.1341469609154292e-04  -1.2420356754354753e-04  -1.3461272795114163e-04  -1.4463789778913910e-04  -1.5427492613614462e-04  -1.6351979283320994e-04  -1.7236861157656020e-04  -1.8081763371700945e-04  -1.8886325260459260e-04  -1.9650200836410201e-04  -2.0373059302080643e-04  -2.1054585591917036e-04  -2.1694480939399101e-04  -2.2292463466524746e-04  -2.2848268793619164e-04  -2.3361650668039330e-04  -2.3832381610763595e-04  -2.4260253580190121e-04  -2.4645078652686892e-04  -2.4986689719619837e-04  -2.5284941200709915e-04  -2.5539709773669643e-04  -2.5750895120145169e-04  -2.5918420688045014e-04  -2.6042234470380050e-04  -2.6122309800784846e-04  -2.6158646165903523e-04  -2.6151270034859806e-04  -2.6100235706033175e-04  -2.6005626171405678e-04  -2.5867553998717296e-04  -2.5686162231723994e-04  -2.5461625308820278e-04  -2.5194150000334216e-04  -2.4883976364779441e-04  -2.4531378724374755e-04  -2.4136666660145079e-04  -2.3700186026921874e-04  -2.3222319988564166e-04  -2.2703490073735586e-04  -2.2144157252571887e-04  -2.1544823034578455e-04  -2.0906030588115898e-04  -2.0228365881812661e-04  -1.9512458848276710e-04  -1.8758984570460525e-04  -1.7968664491062382e-04  -1.7142267645325803e-04  -1.6280611917630333e-04  -1.5384565322252780e-04  -1.4455047308703126e-04  -1.3493030092023519e-04  -1.2499540008457089e-04  -1.1475658896909597e-04  -1.0422525506605598e-04  -9.3413369313780927e-05  -8.2333500710093287e-05  -7.0998831200661875e-05  -5.9423170846741082e-05  -4.7620973276799745e-05  -3.5607351426567601e-05  -2.3398093572136922e-05  -1.1009679660923681e-05  1.5407020548530871e-06  1.4235138077205817e-05  2.7054972409134038e-05  3.9980788983958692e-05  5.2992393772241048e-05  6.6068796561067003e-05  7.9188192400539729e-05  9.2327942712147479e-05  1.0546455605340688e-04  1.1857366853372609e-04  1.3163002387544173e-04  1.4460745311471631e-04  1.5747885393646401e-04  1.7021616963740712e-04  1.8279036771150868e-04  1.9517141805171605e-04  2.0732827076197404e-04  2.1922883357334110e-04  2.3083994885811037e-04  2.4212737023558977e-04  2.5305573876328576e-04  2.6358855870712764e-04  2.7368817288447151e-04  2.8331573757351140e-04  2.9243119698292949e-04  3.0099325727566756e-04  3.0895936014099161e-04  3.1628565590924806e-04  3.2292697620438308e-04  3.2883680612978981e-04  3.3396725598409016e-04  3.3826903250506568e-04  3.4169140964143826e-04  3.4418219885538334e-04  3.4568771896206671e-04  3.4615276551802887e-04  3.4552057977757283e-04  3.4373281724683392e-04  3.4072951588046813e-04  3.3644906398709010e-04  3.3082816794129187e-04  3.2380181984519306e-04  3.1530326535021371e-04  3.0526397194942135e-04  2.9361359820200700e-04  2.8027996457987239e-04  2.6518902697721358e-04  2.4826485446503241e-04  2.2942961370622686e-04  2.0860356372423902e-04  1.8570506661621185e-04  1.6065062244132515e-04  1.3335493952772171e-04  1.0373105375627927e-04  7.1690505790877036e-05  3.7143628086756182e-05  -1.4399560103323187e-20  -1.8601589482861992e-21  -2.1595641446639734e-05  -4.2673974320227833e-05  -6.3226394270342375e-05  -8.3244600115044089e-05  -1.0272054579904824e-04  -1.2164641709443257e-04  -1.4001461742578407e-04  -1.5781775792664905e-04  -1.7504865007351064e-04  -1.9170030118853353e-04  -2.0776591266065725e-04  -2.2323888050912319e-04  -2.3811279785073577e-04  -2.5238145887381143e-04  -2.6603886399527194e-04  -2.7907922595091049e-04  -2.9149697663139997e-04  -3.0328677452531270e-04  -3.1444351266757817e-04  -3.2496232701923909e-04  -3.3483860522450523e-04  -3.4406799570606088e-04  -3.5264641707034590e-04  -3.6057006780264230e-04  -3.6783543623759537e-04  -3.7443931079540890e-04  -3.8037879047702060e-04  -3.8565129561426704e-04  -3.9025457887275277e-04  -3.9418673650676235e-04  -3.9744621986649554e-04  -4.0003184715890105e-04  -4.0194281546395534e-04  -4.0317871300896315e-04  -4.0373953170359160e-04  -4.0362567993906904e-04  -4.0283799565485996e-04  -4.0137775967684890e-04  -3.9924670933071327e-04  -3.9644705233492662e-04  -3.9298148097748379e-04  -3.8885318658095716e-04  -3.8406587426036246e-04  -3.7862377797855421e-04  -3.7253167590397044e-04  -3.6579490607561857e-04  -3.5841938238028457e-04  -3.5041161084707368e-04  -3.4177870626447122e-04  -3.3252840912514529e-04  -3.2266910290398263e-04  -3.1220983167463777e-04  -3.0116031807026481e-04  -2.8953098159394868e-04  -2.7733295728468927e-04  -2.6457811474457318e-04  -2.5127907753314248e-04  -2.3744924293487096e-04  -2.2310280210588625e-04  -2.0825476060601657e-04  -1.9292095932243864e-04  -1.7711809579133551e-04  -1.6086374592392256e-04  -1.4417638614345484e-04  -1.2707541593978003e-04  -1.0958118084822659e-04  -9.1714995859626191e-05  -7.3499169268505227e-05  -5.4957026966364494e-05  -3.6112937187224123e-05  -1.6992335712809378e-05  2.3782484553986709e-06  2.1971166949664393e-05  4.1757625407538847e-05  6.1707656353693276e-05  8.1790091584184031e-05  1.0197253404527239e-04  1.2222132919872969e-04  1.4250153586543152e-04  1.6277689653885894e-04  1.8300980716031180e-04  2.0316128634700198e-04  2.2319094406453240e-04  2.4305694973501100e-04  2.6271599977168027e-04  2.8212328453125870e-04  3.0123245467475609e-04  3.1999558692749245e-04  3.3836314922901586e-04  3.5628396526350724e-04  3.7370517836115771e-04  3.9057221476103242e-04  4.0682874622578188e-04  4.2241665199888148e-04  4.3727598009480245e-04  4.5134490791306136e-04  4.6455970216707142e-04  4.7685467811938147e-04  4.8816215811527114e-04  4.9841242940782673e-04  5.0753370126852774e-04  5.1545206137921184e-04  5.2209143150369955e-04  5.2737352244018501e-04  5.3121778826031071e-04  5.3354137984643112e-04  5.3425909774717953e-04  5.3328334438268584e-04  5.3052407564689304e-04  5.2588875197678484e-04  5.1928228898965548e-04  5.1060700783430747e-04  4.9976258546539833e-04  4.8664600514168816e-04  4.7115150758022894e-04  4.5317054339051615e-04  4.3259172769064067e-04  4.0930079821418971e-04  3.8318057880614017e-04  3.5411095104882670e-04  3.2196883793079377e-04  2.8662820500867706e-04  2.4796008629269112e-04  2.0583264385262703e-04  1.6011127081248089e-04  1.1065875481003377e-04  5.7335522161001157e-05  -1.5519524061506814e-20  -7.0927372152394458e-21  -3.0660951553578927e-05  -6.0586852539505814e-05  -8.9765689700757394e-05  -1.1818581651114371e-04  -1.4583591213607945e-04  -1.7270495644639916e-04  -1.9878221539532511e-04  -2.2405723200459598e-04  -2.4851982111496020e-04  -2.7216006713978074e-04  -2.9496832452192176e-04  -3.1693522055973325e-04  -3.3805166024370288e-04  -3.5830883275977298e-04  -3.7769821935990241e-04  -3.9621160235419570e-04  -4.1384107503063380e-04  -4.3057905235255247e-04  -4.4641828232005760e-04  -4.6135185790974019e-04  -4.7537322952865592e-04  -4.8847621793524630e-04  -5.0065502759228948e-04  -5.1190426042656712e-04  -5.2221892997703090e-04  -5.3159447591888691e-04  -5.4002677895498784e-04  -5.4751217606933630e-04  -5.5404747613979036e-04  -5.5962997590913049e-04  -5.6425747631499350e-04  -5.6792829918050815e-04  -5.7064130426823408e-04  -5.7239590670096340e-04  -5.7319209475332567e-04  -5.730304480188574