<?xml version="1.0"?>
<VTKFile type="UnstructuredGrid"  version="0.1"  >
<UnstructuredGrid>
<Piece  NumberOfPoints="1089" NumberOfCells="1024">
<Points>
<DataArray  type="Float64"  NumberOfComponents="3"  format="ascii">0 0 0  0.03125 0 0  0.0625 0 0  0.09375 0 0  0.125 0 0  0.15625 0 0  0.1875 0 0  0.21875 0 0  0.25 0 0  0.28125 0 0  0.3125 0 0  0.34375 0 0  0.375 0 0  0.40625 0 0  0.4375 0 0  0.46875 0 0  0.5 0 0  0.53125 0 0  0.5625 0 0  0.59375 0 0  0.625 0 0  0.65625 0 0  0.6875 0 0  0.71875 0 0  0.75 0 0  0.78125 0 0  0.8125 0 0  0.84375 0 0  0.875 0 0  0.90625 0 0  0.9375 0 0  0.96875 0 0  1 0 0  0 0.03125 0  0.03125 0.03125 0  0.0625 0.03125 0  0.09375 0.03125 0  0.125 0.03125 0  0.15625 0.03125 0  0.1875 0.03125 0  0.21875 0.03125 0  0.25 0.03125 0  0.28125 0.03125 0  0.3125 0.03125 0  0.34375 0.03125 0  0.375 0.03125 0  0.40625 0.03125 0  0.4375 0.03125 0  0.46875 0.03125 0  0.5 0.03125 0  0.53125 0.03125 0  0.5625 0.03125 0  0.59375 0.03125 0  0.625 0.03125 0  0.65625 0.03125 0  0.6875 0.03125 0  0.71875 0.03125 0  0.75 0.03125 0  0.78125 0.03125 0  0.8125 0.03125 0  0.84375 0.03125 0  0.875 0.03125 0  0.90625 0.03125 0  0.9375 0.03125 0  0.96875 0.03125 0  1 0.03125 0  0 0.0625 0  0.03125 0.0625 0  0.0625 0.0625 0  0.09375 0.0625 0  0.125 0.0625 0  0.15625 0.0625 0  0.1875 0.0625 0  0.21875 0.0625 0  0.25 0.0625 0  0.28125 0.0625 0  0.3125 0.0625 0  0.34375 0.0625 0  0.375 0.0625 0  0.40625 0.0625 0  0.4375 0.0625 0  0.46875 0.0625 0  0.5 0.0625 0  0.53125 0.0625 0  0.5625 0.0625 0  0.59375 0.0625 0  0.625 0.0625 0  0.65625 0.0625 0  0.6875 0.0625 0  0.71875 0.0625 0  0.75 0.0625 0  0.78125 0.0625 0  0.8125 0.0625 0  0.84375 0.0625 0  0.875 0.0625 0  0.90625 0.0625 0  0.9375 0.0625 0  0.96875 0.0625 0  1 0.0625 0  0 0.09375 0  0.03125 0.09375 0  0.0625 0.09375 0  0.09375 0.09375 0  0.125 0.09375 0  0.15625 0.09375 0  0.1875 0.09375 0  0.21875 0.09375 0  0.25 0.09375 0  0.28125 0.09375 0  0.3125 0.09375 0  0.34375 0.09375 0  0.375 0.09375 0  0.40625 0.09375 0  0.4375 0.09375 0  0.46875 0.09375 0  0.5 0.09375 0  0.53125 0.09375 0  0.5625 0.09375 0  0.59375 0.09375 0  0.625 0.09375 0  0.65625 0.09375 0  0.6875 0.09375 0  0.71875 0.09375 0  0.75 0.09375 0  0.78125 0.09375 0  0.8125 0.09375 0  0.84375 0.09375 0  0.875 0.09375 0  0.90625 0.09375 0  0.9375 0.09375 0  0.96875 0.09375 0  1 0.09375 0  0 0.125 0  0.03125 0.125 0  0.0625 0.125 0  0.09375 0.125 0  0.125 0.125 0  0.15625 0.125 0  0.1875 0.125 0  0.21875 0.125 0  0.25 0.125 0  0.28125 0.125 0  0.3125 0.125 0  0.34375 0.125 0  0.375 0.125 0  0.40625 0.125 0  0.4375 0.125 0  0.46875 0.125 0  0.5 0.125 0  0.53125 0.125 0  0.5625 0.125 0  0.59375 0.125 0  0.625 0.125 0  0.65625 0.125 0  0.6875 0.125 0  0.71875 0.125 0  0.75 0.125 0  0.78125 0.125 0  0.8125 0.125 0  0.84375 0.125 0  0.875 0.125 0  0.90625 0.125 0  0.9375 0.125 0  0.96875 0.125 0  1 0.125 0  0 0.15625 0  0.03125 0.15625 0  0.0625 0.15625 0  0.09375 0.15625 0  0.125 0.15625 0  0.15625 0.15625 0  0.1875 0.15625 0  0.21875 0.15625 0  0.25 0.15625 0  0.28125 0.15625 0  0.3125 0.15625 0  0.34375 0.15625 0  0.375 0.15625 0  0.40625 0.15625 0  0.4375 0.15625 0  0.46875 0.15625 0  0.5 0.15625 0  0.53125 0.15625 0  0.5625 0.15625 0  0.59375 0.15625 0  0.625 0.15625 0  0.65625 0.15625 0  0.6875 0.15625 0  0.71875 0.15625 0  0.75 0.15625 0  0.78125 0.15625 0  0.8125 0.15625 0  0.84375 0.15625 0  0.875 0.15625 0  0.90625 0.15625 0  0.9375 0.15625 0  0.96875 0.15625 0  1 0.15625 0  0 0.1875 0  0.03125 0.1875 0  0.0625 0.1875 0  0.09375 0.1875 0  0.125 0.1875 0  0.15625 0.1875 0  0.1875 0.1875 0  0.21875 0.1875 0  0.25 0.1875 0  0.28125 0.1875 0  0.3125 0.1875 0  0.34375 0.1875 0  0.375 0.1875 0  0.40625 0.1875 0  0.4375 0.1875 0  0.46875 0.1875 0  0.5 0.1875 0  0.53125 0.1875 0  0.5625 0.1875 0  0.59375 0.1875 0  0.625 0.1875 0  0.65625 0.1875 0  0.6875 0.1875 0  0.71875 0.1875 0  0.75 0.1875 0  0.78125 0.1875 0  0.8125 0.1875 0  0.84375 0.1875 0  0.875 0.1875 0  0.90625 0.1875 0  0.9375 0.1875 0  0.96875 0.1875 0  1 0.1875 0  0 0.21875 0  0.03125 0.21875 0  0.0625 0.21875 0  0.09375 0.21875 0  0.125 0.21875 0  0.15625 0.21875 0  0.1875 0.21875 0  0.21875 0.21875 0  0.25 0.21875 0  0.28125 0.21875 0  0.3125 0.21875 0  0.34375 0.21875 0  0.375 0.21875 0  0.40625 0.21875 0  0.4375 0.21875 0  0.46875 0.21875 0  0.5 0.21875 0  0.53125 0.21875 0  0.5625 0.21875 0  0.59375 0.21875 0  0.625 0.21875 0  0.65625 0.21875 0  0.6875 0.21875 0  0.71875 0.21875 0  0.75 0.21875 0  0.78125 0.21875 0  0.8125 0.21875 0  0.84375 0.21875 0  0.875 0.21875 0  0.90625 0.21875 0  0.9375 0.21875 0  0.96875 0.21875 0  1 0.21875 0  0 0.25 0  0.03125 0.25 0  0.0625 0.25 0  0.09375 0.25 0  0.125 0.25 0  0.15625 0.25 0  0.1875 0.25 0  0.21875 0.25 0  0.25 0.25 0  0.28125 0.25 0  0.3125 0.25 0  0.34375 0.25 0  0.375 0.25 0  0.40625 0.25 0  0.4375 0.25 0  0.46875 0.25 0  0.5 0.25 0  0.53125 0.25 0  0.5625 0.25 0  0.59375 0.25 0  0.625 0.25 0  0.65625 0.25 0  0.6875 0.25 0  0.71875 0.25 0  0.75 0.25 0  0.78125 0.25 0  0.8125 0.25 0  0.84375 0.25 0  0.875 0.25 0  0.90625 0.25 0  0.9375 0.25 0  0.96875 0.25 0  1 0.25 0  0 0.28125 0  0.03125 0.28125 0  0.0625 0.28125 0  0.09375 0.28125 0  0.125 0.28125 0  0.15625 0.28125 0  0.1875 0.28125 0  0.21875 0.28125 0  0.25 0.28125 0  0.28125 0.28125 0  0.3125 0.28125 0  0.34375 0.28125 0  0.375 0.28125 0  0.40625 0.28125 0  0.4375 0.28125 0  0.46875 0.28125 0  0.5 0.28125 0  0.53125 0.28125 0  0.5625 0.28125 0  0.59375 0.28125 0  0.625 0.28125 0  0.65625 0.28125 0  0.6875 0.28125 0  0.71875 0.28125 0  0.75 0.28125 0  0.78125 0.28125 0  0.8125 0.28125 0  0.84375 0.28125 0  0.875 0.28125 0  0.90625 0.28125 0  0.9375 0.28125 0  0.96875 0.28125 0  1 0.28125 0  0 0.3125 0  0.03125 0.3125 0  0.0625 0.3125 0  0.09375 0.3125 0  0.125 0.3125 0  0.15625 0.3125 0  0.1875 0.3125 0  0.21875 0.3125 0  0.25 0.3125 0  0.28125 0.3125 0  0.3125 0.3125 0  0.34375 0.3125 0  0.375 0.3125 0  0.40625 0.3125 0  0.4375 0.3125 0  0.46875 0.3125 0  0.5 0.3125 0  0.53125 0.3125 0  0.5625 0.3125 0  0.59375 0.3125 0  0.625 0.3125 0  0.65625 0.3125 0  0.6875 0.3125 0  0.71875 0.3125 0  0.75 0.3125 0  0.78125 0.3125 0  0.8125 0.3125 0  0.84375 0.3125 0  0.875 0.3125 0  0.90625 0.3125 0  0.9375 0.3125 0  0.96875 0.3125 0  1 0.3125 0  0 0.34375 0  0.03125 0.34375 0  0.0625 0.34375 0  0.09375 0.34375 0  0.125 0.34375 0  0.15625 0.34375 0  0.1875 0.34375 0  0.21875 0.34375 0  0.25 0.34375 0  0.28125 0.34375 0  0.3125 0.34375 0  0.34375 0.34375 0  0.375 0.34375 0  0.40625 0.34375 0  0.4375 0.34375 0  0.46875 0.34375 0  0.5 0.34375 0  0.53125 0.34375 0  0.5625 0.34375 0  0.59375 0.34375 0  0.625 0.34375 0  0.65625 0.34375 0  0.6875 0.34375 0  0.71875 0.34375 0  0.75 0.34375 0  0.78125 0.34375 0  0.8125 0.34375 0  0.84375 0.34375 0  0.875 0.34375 0  0.90625 0.34375 0  0.9375 0.34375 0  0.96875 0.34375 0  1 0.34375 0  0 0.375 0  0.03125 0.375 0  0.0625 0.375 0  0.09375 0.375 0  0.125 0.375 0  0.15625 0.375 0  0.1875 0.375 0  0.21875 0.375 0  0.25 0.375 0  0.28125 0.375 0  0.3125 0.375 0  0.34375 0.375 0  0.375 0.375 0  0.40625 0.375 0  0.4375 0.375 0  0.46875 0.375 0  0.5 0.375 0  0.53125 0.375 0  0.5625 0.375 0  0.59375 0.375 0  0.625 0.375 0  0.65625 0.375 0  0.6875 0.375 0  0.71875 0.375 0  0.75 0.375 0  0.78125 0.375 0  0.8125 0.375 0  0.84375 0.375 0  0.875 0.375 0  0.90625 0.375 0  0.9375 0.375 0  0.96875 0.375 0  1 0.375 0  0 0.40625 0  0.03125 0.40625 0  0.0625 0.40625 0  0.09375 0.40625 0  0.125 0.40625 0  0.15625 0.40625 0  0.1875 0.40625 0  0.21875 0.40625 0  0.25 0.40625 0  0.28125 0.40625 0  0.3125 0.40625 0  0.34375 0.40625 0  0.375 0.40625 0  0.40625 0.40625 0  0.4375 0.40625 0  0.46875 0.40625 0  0.5 0.40625 0  0.53125 0.40625 0  0.5625 0.40625 0  0.59375 0.40625 0  0.625 0.40625 0  0.65625 0.40625 0  0.6875 0.40625 0  0.71875 0.40625 0  0.75 0.40625 0  0.78125 0.40625 0  0.8125 0.40625 0  0.84375 0.40625 0  0.875 0.40625 0  0.90625 0.40625 0  0.9375 0.40625 0  0.96875 0.40625 0  1 0.40625 0  0 0.4375 0  0.03125 0.4375 0  0.0625 0.4375 0  0.09375 0.4375 0  0.125 0.4375 0  0.15625 0.4375 0  0.1875 0.4375 0  0.21875 0.4375 0  0.25 0.4375 0  0.28125 0.4375 0  0.3125 0.4375 0  0.34375 0.4375 0  0.375 0.4375 0  0.40625 0.4375 0  0.4375 0.4375 0  0.46875 0.4375 0  0.5 0.4375 0  0.53125 0.4375 0  0.5625 0.4375 0  0.59375 0.4375 0  0.625 0.4375 0  0.65625 0.4375 0  0.6875 0.4375 0  0.71875 0.4375 0  0.75 0.4375 0  0.78125 0.4375 0  0.8125 0.4375 0  0.84375 0.4375 0  0.875 0.4375 0  0.90625 0.4375 0  0.9375 0.4375 0  0.96875 0.4375 0  1 0.4375 0  0 0.46875 0  0.03125 0.46875 0  0.0625 0.46875 0  0.09375 0.46875 0  0.125 0.46875 0  0.15625 0.46875 0  0.1875 0.46875 0  0.21875 0.46875 0  0.25 0.46875 0  0.28125 0.46875 0  0.3125 0.46875 0  0.34375 0.46875 0  0.375 0.46875 0  0.40625 0.46875 0  0.4375 0.46875 0  0.46875 0.46875 0  0.5 0.46875 0  0.53125 0.46875 0  0.5625 0.46875 0  0.59375 0.46875 0  0.625 0.46875 0  0.65625 0.46875 0  0.6875 0.46875 0  0.71875 0.46875 0  0.75 0.46875 0  0.78125 0.46875 0  0.8125 0.46875 0  0.84375 0.46875 0  0.875 0.46875 0  0.90625 0.46875 0  0.9375 0.46875 0  0.96875 0.46875 0  1 0.46875 0  0 0.5 0  0.03125 0.5 0  0.0625 0.5 0  0.09375 0.5 0  0.125 0.5 0  0.15625 0.5 0  0.1875 0.5 0  0.21875 0.5 0  0.25 0.5 0  0.28125 0.5 0  0.3125 0.5 0  0.34375 0.5 0  0.375 0.5 0  0.40625 0.5 0  0.4375 0.5 0  0.46875 0.5 0  0.5 0.5 0  0.53125 0.5 0  0.5625 0.5 0  0.59375 0.5 0  0.625 0.5 0  0.65625 0.5 0  0.6875 0.5 0  0.71875 0.5 0  0.75 0.5 0  0.78125 0.5 0  0.8125 0.5 0  0.84375 0.5 0  0.875 0.5 0  0.90625 0.5 0  0.9375 0.5 0  0.96875 0.5 0  1 0.5 0  0 0.53125 0  0.03125 0.53125 0  0.0625 0.53125 0  0.09375 0.53125 0  0.125 0.53125 0  0.15625 0.53125 0  0.1875 0.53125 0  0.21875 0.53125 0  0.25 0.53125 0  0.28125 0.53125 0  0.3125 0.53125 0  0.34375 0.53125 0  0.375 0.53125 0  0.40625 0.53125 0  0.4375 0.53125 0  0.46875 0.53125 0  0.5 0.53125 0  0.53125 0.53125 0  0.5625 0.53125 0  0.59375 0.53125 0  0.625 0.53125 0  0.65625 0.53125 0  0.6875 0.53125 0  0.71875 0.53125 0  0.75 0.53125 0  0.78125 0.531
[...]
<PointData  Scalars="u_sol"> 
<DataArray  type="Float64"  Name="u_sol"  format="ascii">-4.9693330195148615e-05  -1.5465591346433191e-05  6.8684286185941425e-04  1.3474321130434314e-03  1.6580557806902970e-03  2.0787573739280054e-03  3.3264538149627896e-03  4.5311974722614060e-03  5.7049932146454822e-03  8.7862980828077517e-03  1.2525693897522151e-02  1.3345516819062255e-02  1.0273965215846583e-02  3.9190288375433617e-03  -4.2122615773599065e-03  -1.2238582800682305e-02  -1.7990795652169097e-02  -1.9594123188882338e-02  -1.5792588656086872e-02  -6.7695827923078128e-03  5.5930721310793194e-03  1.7790231394561772e-02  2.6148577322213845e-02  2.8336637915470909e-02  2.4387345312626627e-02  1.6586177091753120e-02  8.5800119779016384e-03  3.0907121471769904e-03  4.7392343568715346e-04  -2.7503756863591781e-04  -3.7286117412441410e-04  -3.1322134545711520e-04  1.9830873247812326e-05  -4.8782379634670534e-04  2.4467067270904819e-03  8.5339247265825077e-03  1.3158113456251929e-02  1.4280237031110301e-02  1.2731740037385000e-02  9.9315207042206168e-03  5.7731015105570794e-03  -4.5781284842620921e-03  -2.5896896239698444e-02  -5.9467944059674455e-02  -1.0234275214244555e-01  -1.4839934663162410e-01  -1.9061179160051714e-01  -2.2316854410500936e-01  -2.4222398026969599e-01  -2.4573214399091703e-01  -2.3292098458369026e-01  -2.0420847966798034e-01  -1.6142446348712255e-01  -1.0852993838449508e-01  -5.1944295774039508e-02  1.4761026142711732e-04  4.0285692413309600e-02  6.4257390165763276e-02  7.1356449430388755e-02  6.3843147412498386e-02  4.7665799464072685e-02  3.0321305292395476e-02  1.6478945291209759e-02  7.1726649412298766e-03  1.6265776728421799e-03  -3.2784988982317409e-04  -7.6091454423801556e-04  3.8965995886534061e-03  1.1305672543283411e-02  1.5259549494736563e-02  1.4025687043229580e-02  7.2868940548968114e-03  -7.3072223184232742e-03  -3.5661022614116925e-02  -8.0728864094144717e-02  -1.4057362977781443e-01  -2.0578609729332270e-01  -2.6519358302285123e-01  -3.1269188753160171e-01  -3.4698022213133478e-01  -3.6897965233263669e-01  -3.8003280871979800e-01  -3.8093074536321475e-01  -3.7166532234421873e-01  -3.5127696604864889e-01  -3.1821179569698210e-01  -2.7119363209584757e-01  -2.1128810892050742e-01  -1.4401242767205955e-01  -7.9321675249850010e-02  -2.6762958924571902e-02  1.0188558861894998e-02  3.2534958644776263e-02  4.0196629090424242e-02  3.5227752150245359e-02  2.4036793758151310e-02  1.2624559854315535e-02  3.6561556040914387e-03  -6.7376995145673963e-04  -9.3688044304576388e-04  4.8452814353461158e-03  1.0427571963938443e-02  7.0822875126978491e-03  -3.3493925001822807e-03  -2.3701296779786832e-02  -6.2718079792541612e-02  -1.2354357765508497e-01  -1.9735021475349510e-01  -2.6860534530806984e-01  -3.2728788250860991e-01  -3.7099491882312891e-01  -4.0154753996133752e-01  -4.2177538817652227e-01  -4.3434781121971633e-01  -4.4118471601968945e-01  -4.4355827340512488e-01  -4.4190418098537737e-01  -4.3565883010793099e-01  -4.2251196005567881e-01  -3.9795049321472981e-01  -3.5575638437576423e-01  -2.9185962148101180e-01  -2.1057751937711225e-01  -1.2794472373400229e-01  -6.2686863417719438e-02  -2.0850557312862696e-02  4.3122772379307573e-03  1.6483829416033616e-02  1.7244327817584643e-02  1.1226386198947669e-02  3.6047607183674916e-03  -6.8204292677918443e-04  -8.3932494691764143e-04  4.8096665137402012e-03  5.4580462330370994e-03  -6.8614315706931684e-03  -3.3066246771459515e-02  -7.8712334356099159e-02  -1.4608482708635087e-01  -2.2338254887303285e-01  -2.9307406535128289e-01  -3.4565486657124406e-01  -3.8016827429064942e-01  -3.9977951853576971e-01  -4.0904295455513012e-01  -4.1210980709593337e-01  -4.1216178069023163e-01  -4.1113198528992140e-01  -4.1029898002210741e-01  -4.1048147059055373e-01  -4.1241941672739518e-01  -4.1619322088882454e-01  -4.2001914769973220e-01  -4.1768126379854292e-01  -3.9697463194568655e-01  -3.4383355499470059e-01  -2.5568651697394446e-01  -1.5391959255613635e-01  -7.2839147796589662e-02  -2.6990714942366198e-02  -4.1117705989154821e-03  5.5179141542943538e-03  6.1663641018353662e-03  2.1471769642833639e-03  -4.3258579891859451e-04  -1.3983503700649316e-04  1.7039683411204493e-03  -8.4711551844376329e-03  -3.4174479246421176e-02  -7.8597397791829532e-02  -1.4568088443782093e-01  -2.2293465809578156e-01  -2.8993563702066816e-01  -3.3568072825907097e-01  -3.6037136013546056e-01  -3.6947863349374599e-01  -3.7021736173268965e-01  -3.6799801027163181e-01  -3.6587154285313567e-01  -3.6453064370216509e-01  -3.6390695227481790e-01  -3.6353185074099481e-01  -3.6342964441833192e-01  -3.6395441344620560e-01  -3.6636733699168905e-01  -3.7246163797674869e-01  -3.8370594766558502e-01  -3.9696875639281226e-01  -3.9843915276000869e-01  -3.6357833983321136e-01  -2.7696339566737399e-01  -1.6094455715310180e-01  -6.7469522038751034e-02  -2.1189575648841105e-02  -3.0554332163560444e-03  1.5595211064042631e-03  9.7420123942491301e-04  -2.0630908592796730e-04  1.0525519996884378e-03  -4.3805213044416759e-03  -2.7522920814484229e-02  -6.8773482803576882e-02  -1.3055396800993035e-01  -2.0481808471365914e-01  -2.6883549686503366e-01  -3.0956109209097993e-01  -3.2809164230785576e-01  -3.3182795162920103e-01  -3.2996309333721013e-01  -3.2807182323270445e-01  -3.2802649108434662e-01  -3.2915591401719019e-01  -3.3065244053675502e-01  -3.3184788657544179e-01  -3.3266823746087931e-01  -3.3307734777989323e-01  -3.3327319705112429e-01  -3.3337238952407755e-01  -3.3403390879773859e-01  -3.3701350237313937e-01  -3.4600292282891293e-01  -3.6299604705357391e-01  -3.7742331867474510e-01  -3.5749235213210073e-01  -2.7342658494087291e-01  -1.4764030831526348e-01  -5.0603938677300883e-02  -1.1229995174164592e-02  6.7111799460446470e-04  9.5888771449507439e-04  -2.1042476916741454e-04  2.4621826663879607e-03  -1.2622491622829166e-02  -4.8325534436996095e-02  -1.0243843097645863e-01  -1.7149165243643261e-01  -2.3453816086387280e-01  -2.7514142380619411e-01  -2.9301334573324184e-01  -2.9555127580961404e-01  -2.9364476073387813e-01  -2.9297328390110022e-01  -2.9450104063360555e-01  -2.9684410778905562e-01  -2.9915540797026052e-01  -3.0105604229197064e-01  -3.0261338115574865e-01  -3.0385771438477854e-01  -3.0491646308438292e-01  -3.0585263599678397e-01  -3.0679421300360898e-01  -3.0764989538960003e-01  -3.0830172542988854e-01  -3.0928842867177531e-01  -3.1444960855140852e-01  -3.2982373375962742e-01  -3.4937070713278079e-01  -3.3582576478185283e-01  -2.4782106196585385e-01  -1.1529884598077429e-01  -2.7899885428250240e-02  -2.2174219580106780e-03  1.3100444541746406e-03  -1.9079236806052687e-04  3.7307870233287328e-03  -2.1219567236120156e-02  -6.8177478701890934e-02  -1.2900201496755750e-01  -1.9092933064386541e-01  -2.3515009474603288e-01  -2.5583495844495108e-01  -2.5945620743080983e-01  -2.5802662346969729e-01  -2.5844588199774354e-01  -2.6087664606769623e-01  -2.6399796511285650e-01  -2.6673587118153219e-01  -2.6917032081903147e-01  -2.7118285103695289e-01  -2.7301227506328796e-01  -2.7456103767735468e-01  -2.7605162072044720e-01  -2.7742504837440546e-01  -2.7885917291047008e-01  -2.8027233184707051e-01  -2.8168136315986403e-01  -2.8259077594274346e-01  -2.8280430591675737e-01  -2.8559230862037427e-01  -2.9970501039958608e-01  -3.2074052049477519e-01  -3.0336825982059434e-01  -2.0141057246593286e-01  -6.9640639671000190e-02  -9.0369393718999370e-03  3.0213704325744023e-03  -5.3577171713176661e-04  4.6336635782470315e-03  -2.7698087405438835e-02  -8.0342485124475005e-02  -1.3870569144094980e-01  -1.8829515280039635e-01  -2.1556692961648222e-01  -2.2344407046595749e-01  -2.2391506919784018e-01  -2.2507344594944920e-01  -2.2798594214381815e-01  -2.3132987987386364e-01  -2.3426328225313164e-01  -2.3680906739342139e-01  -2.3909828236477051e-01  -2.4118225412132319e-01  -2.4311316048881201e-01  -2.4491954063557220e-01  -2.4666881102049656e-01  -2.4840872218886223e-01  -2.5020591200037584e-01  -2.5209423461250713e-01  -2.5403993843223965e-01  -2.5587460657767597e-01  -2.5687618436005472e-01  -2.5622150082565170e-01  -2.5776634180688540e-01  -2.7281266971777207e-01  -2.9268176335806073e-01  -2.5811556723782619e-01  -1.3567945386010119e-01  -2.3943549105483540e-02  -2.1013331643149813e-03  3.7420836449571666e-05  5.0525435797766430e-03  -3.0584674506243029e-02  -8.3364228746892560e-02  -1.3459603850679089e-01  -1.7025906866617127e-01  -1.8560944953378727e-01  -1.8925806396491526e-01  -1.9062692239013596e-01  -1.9356590480503552e-01  -1.9723700537074812e-01  -2.0059521699916114e-01  -2.0357154916974876e-01  -2.0632441208986907e-01  -2.0883453249129361e-01  -2.1115431578910712e-01  -2.1330877995664849e-01  -2.1537349847767101e-01  -2.1736110875161238e-01  -2.1932763731604774e-01  -2.2126896742028557e-01  -2.2322221688539276e-01  -2.2518672876343887e-01  -2.2726027599973830e-01  -2.2939989074225162e-01  -2.3054182201991258e-01  -2.2898786499139046e-01  -2.3083459183915200e-01  -2.4939642127468031e-01  -2.6107837518195892e-01  -1.9261430482292569e-01  -6.0235639931462422e-02  -2.2564176311576866e-03  6.8510425745508521e-04  4.9933163026725088e-03  -2.9232057885875753e-02  -7.7526799884496456e-02  -1.1883791165292500e-01  -1.4398009920549534e-01  -1.5349706795911283e-01  -1.5624879508699613e-01  -1.5961755936800212e-01  -1.6390066860326746e-01  -1.6775868506786099e-01  -1.7107637759413241e-01  -1.7403051637551054e-01  -1.7668063994879171e-01  -1.7910974891770082e-01  -1.8145000412787679e-01  -1.8371933854204706e-01  -1.8595350183243181e-01  -1.8815503395470862e-01  -1.9037420073976993e-01  -1.9261018632504842e-01  -1.9487758867475968e-01  -1.9708816554983768e-01  -1.9910686414180651e-01  -2.0094986328435416e-01  -2.0295622101684119e-01  -2.0370724982110619e-01  -2.0121820855389361e-01  -2.0639174333898977e-01  -2.2848706835221888e-01  -2.1413670976902843e-01  -1.0421361282263041e-01  -1.8555732002074717e-04  1.0276385957546572e-03  4.5270475185395257e-03  -2.4570096751994584e-02  -6.5466303781481744e-02  -9.7393296790768399e-02  -1.1482858971850068e-01  -1.2149822687073807e-01  -1.2536571782064532e-01  -1.2965227216105199e-01  -1.3371804686851402e-01  -1.3739528655295821e-01  -1.4066394570332269e-01  -1.4362373657160782e-01  -1.4637776545072251e-01  -1.4904546355736908e-01  -1.5160275172724710e-01  -1.5404753367978385e-01  -1.5644169162255966e-01  -1.5882375631116283e-01  -1.6122127187645108e-01  -1.6362602433048135e-01  -1.6604660933387017e-01  -1.6849772513888372e-01  -1.7097787950070070e-01  -1.7320232642231925e-01  -1.7502822295711770e-01  -1.7681306699610660e-01  -1.7630198794729662e-01  -1.7400273118256476e-01  -1.8702914287389191e-01  -2.0175732941531088e-01  -1.3575864935718332e-01  -1.8817288460031657e-02  3.7828110231005649e-03  3.6749727918173737e-03  -1.7611367288324634e-02  -4.9771371418764358e-02  -7.3101925214390281e-02  -8.5820787741285390e-02  -9.1648828935297147e-02  -9.5910736149681639e-02  -1.0053042157437124e-01  -1.0481675872365835e-01  -1.0847091459244691e-01  -1.1163153514500823e-01  -1.1449947746236849e-01  -1.1719126149204201e-01  -1.1972066392031448e-01  -1.2214262099633905e-01  -1.2457913491855861e-01  -1.2708124992681372e-01  -1.2963814110223049e-01  -1.3226785111984943e-01  -1.3495737798527657e-01  -1.3768659801686073e-01  -1.4035811859973499e-01  -1.4295813733204396e-01  -1.4550046392519106e-01  -1.4774373609789895e-01  -1.4967328551978662e-01  -1.5098111744623147e-01  -1.4846059347342352e-01  -1.5102840382042945e-01  -1.7132270521778992e-01  -1.4682694760657394e-01  -4.1557786553381541e-02  8.5640870911269460e-03  2.5606739997863443e-03  -9.6234802162271406e-03  -3.2465431823313233e-02  -4.8620260153920243e-02  -5.7753152895755305e-02  -6.2873597616884824e-02  -6.7523296772936434e-02  -7.1803067647399341e-02  -7.5486218224317142e-02  -7.8753033572716041e-02  -8.1736934441752507e-02  -8.4501680521228043e-02  -8.7136884688040137e-02  -8.9674584898151791e-02  -9.2256782122011022e-02  -9.4863474875692230e-02  -9.7498433622999439e-02  -1.0019394091353526e-01  -1.0301072469793417e-01  -1.0592814023421425e-01  -1.0896497590806838e-01  -1.1207028817290859e-01  -1.1515558183184393e-01  -1.1812457086682611e-01  -1.2085017084501751e-01  -1.2305291411324333e-01  -1.2518563047274489e-01  -1.2485680370315347e-01  -1.2254760478395936e-01  -1.3678965395813991e-01  -1.3841221797753772e-01  -5.5049625478036122e-02  1.2609582778872894e-02  1.1873188925389218e-03  -1.3456713853433817e-03  -1.4793540128998018e-02  -2.4620106955526220e-02  -3.1193384934145047e-02  -3.5800382846693721e-02  -4.0002623999721952e-02  -4.3918640246813155e-02  -4.7469515117112580e-02  -5.0494642519798974e-02  -5.3224406427248967e-02  -5.5733184280827491e-02  -5.8147686852385222e-02  -6.0515232605872452e-02  -6.2928226175029786e-02  -6.5366444928764852e-02  -6.7988118522799040e-02  -7.0814897017059314e-02  -7.3855070142005819e-02  -7.7066426248870376e-02  -8.0436245164975023e-02  -8.3911870727376520e-02  -8.7433177846570162e-02  -9.0905103267457585e-02  -9.4327256411588636e-02  -9.7254163605154431e-02  -9.9726027014387805e-02  -1.0138116115489169e-01  -9.8892014677739074e-02  -1.0542698658678509e-01  -1.1844080079178691e-01  -5.9041036748491149e-02  1.3419832145937650e-02  -2.9897641374729516e-04  6.6091483490830832e-03  2.7347670914623290e-03  -1.4847640915470806e-03  -5.3052503330885984e-03  -9.1999926229604425e-03  -1.2957015475948776e-02  -1.6069796030407792e-02  -1.8834155270884535e-02  -2.1340096333425582e-02  -2.3720818047321998e-02  -2.5956530028968951e-02  -2.8183650234686761e-02  -3.0428225414559494e-02  -3.2784966701448336e-02  -3.5312990619745376e-02  -3.8099615955447731e-02  -4.1075364514197438e-02  -4.4303420537837881e-02  -4.7816913627252579e-02  -5.1602727923553103e-02  -5.5610904799067030e-02  -5.9787788567614554e-02  -6.3947642393515358e-02  -6.8043936296803539e-02  -7.1930530827138711e-02  -7.5210768343965811e-02  -7.8114459464276614e-02  -7.7609966809531361e-02  -7.9290356755746028e-02  -9.4823313597778180e-02  -5.5712120964613004e-02  1.1862419299582620e-02  -1.8940561831300366e-03  1.3914903397720769e-02  1.9759641865201381e-02  2.0824848743786963e-02  1.9512368097510349e-02  1.6495380860625415e-02  1.3505974956230120e-02  1.0829048178117653e-02  8.4499720551971125e-03  6.3912186192157982e-03  4.4643406394437209e-03  2.6401390663555522e-03  7.8752393700943428e-04  -1.1349926514624420e-03  -3.2471445328323117e-03  -5.5995690022086425e-03  -8.2339157456717358e-03  -1.1220920502390434e-02  -1.4647513423025315e-02  -1.8470022452709883e-02  -2.2678774145253346e-02  -2.7199346820890990e-02  -3.2038655262944291e-02  -3.7034778292956372e-02  -4.2110034546691551e-02  -4.7039466257553460e-02  -5.1526756227731417e-02  -5.5561738715583966e-02  -5.7629842518518215e-02  -5.7798003054167275e-02  -7.2670971291242864e-02  -4.9097521361957545e-02  9.5346809725757944e-03  -3.3860768674832033e-03  2.0131719325934491e-02  3.6169260757601400e-02  4.2583921628301685e-02  4.4483508084140443e-02  4.2286086854638805e-02  3.9928913552483090e-02  3.8248285451397163e-02  3.6720875497668726e-02  3.5253327696361983e-02  3.3819322712094910e-02  3.2412590707674216e-02  3.0908255470608895e-02  2.9247493238399674e-02  2.7323173656051931e-02  2.5068668060133255e-02  2.2396692367647023e-02  1.9230724423602279e-02  1.5547824215540358e-02  1.1413503246133900e-02  6.6859745921780955e-03  1.5167551806196103e-03  -4.1536582756288958e-03  -1.0063160404488583e-02  -1.6283303768532539e-02  -2.2452637338654310e-02  -2.8561009702282300e-02  -3.3931719450661840e-02  -3.8665622512121169e-02  -3.9808698789409375e-02  -5.3788623491323913e-02  -4.1523691395715559e-02  7.3187813570108349e-03  -4.7026055712649688e-03  2.4714866381323173e-02  5.1264103888471066e-02  6.3393728891140949e-02  6.8520174974777692e-02  6.7841844616380834e-02  6.5966832176113543e-02  6.4504401416665400e-02  6.3482502394902926e-02  6.2672121357896071e-02  6.1870416585281356e-02  6.1056040210801632e-02  6.0117486795919203e-02  5.8954574400143032e-02  5.7441710205720350e-02  5.5492380625090737e-02  5.2969041575817784e-02  4.9904106064804950e-02  4.6130940401767399e-02  4.1722491417975925e-02  3.6479826540391107e-02  3.0687901765271839e-02  2.4106185675309779e-02  1.7124949612533191e-02  9.5321578531304043e-03  1.9445802225380505e-03  -6.0208409643642486e-03  -1.3199191698304701e-02  -2.0611324411618830e-02  -2.4265060936993578e-02  -3.8346431697506289e-02  -3.4507277628469654e-02  5.5413096509356347e-03  -5.4050795902952867e-03  2.6899977904028247e-02  6.4206714354144059e-02  8.3409047815790324e-02  9.2867984433994272e-02  9.3731755329851951e-02  9.2400478742428141e-02  9.1911644353909222e-02  9.1645483576339115e-02  9.1461034920265333e-02  9.1296361499026923e-02  9.1074694743003226e-02  9.0660543362601639e-02  8.9960620147625320e-02  8.8785213562743617e-02  8.7127143007866614e-02  8.4718688727963370e-02  8.1659030261511445e-02  7.7628211256689270e-02  7.2831848033875393e-02  6.7001328898507101e-02  6.0485623940652378e-02  5.2894068014526674e-02  4.4762530268102535e-02  3.5654213049933735e-02  2.6348096951696782e-02  1.6308920293119419e-02  6.9009447034040425e-03  -3.3315409472961192e-03  -1.0403825402431578e-02  -2.5726393550443157e-02  -2.8431226868406014e-02  4.1807559699560126e-03  -5.4617181723129182e-03  2.5803301852214831e-02  7.2953891419061709e-02  1.0087996962220001e-01  1.1513087155214556e-01  1.1946309447545257e-01  1.1850490797744886e-01  1.1767548744092345e-01  1.1795725343947279e-01  1.1862959197897913e-01  1.1931762727307660e-01  1.1996044333420894e-01  1.2035282861741081e-01  1.2045599794671893e-01  1.1990421823021476e-01  1.1877427381821179e-01  1.1667379327569090e-01  1.1376773632308904e-01  1.0967668417135318e-01  1.0470001360828568e-01  9.8426325200528977e-02  9.1182078982803547e-02  8.2499991277014934e-02  7.3049141275356472e-02  6.2291839948512964e-02  5.1070715120191172e-02  3.8755003433560170e-02  2.6678249629177617e-02  1.3424184435904244e-02  2.3262820751676766e-03  -1.5299002694396612e-02  -2.3459972027808144e-02  3.1695139208229414e-03  -4.3829667961602587e-03  2.1360211526282757e-02  7.5843695052304025e-02  1.1536359364207414e-01  1.3646871531018673e-01  1.4447974579976083e-01  1.4539286790496106e-01  1.4535220536589369e-01  1.4601959896285507e-01  1.4735352094829421e-01  1.4888813589737027e-01  1.5044955778640254e-01  1.5160783759119301e-01  1.5244986626282525e-01  1.5249864910797845e-01  1.5186567730542863e-01  1.5009264922766280e-01  1.4736988579182109e-01  1.4324406172154558e-01  1.3796601206146128e-01  1.3105396986436121e-01  1.2290331443791751e-01  1.1318232620822692e-01  1.0237914127944993e-01  8.9806130839558754e-02  7.6422453234293392e-02  6.1657044945043413e-02  4.6538696750738316e-02  2.9937509595031987e-02  1.4324789080376004e-02  -6.4654482343996346e-03  -1.9438757033016767e-02  2.4000411716163603e-03  -3.3551957732506415e-03  1.4101821427632022e-02  7.0556375303293908e-02  1.2232778145198510e-01  1.5232692348408575e-01  1.6740352567175981e-01  1.7089242274913344e-01  1.7068630670962484e-01  1.7176472565292628e-01  1.7410515688823877e-01  1.7675458567734581e-01  1.7962574601062792e-01  1.8207752135125299e-01  1.8411337197758360e-01  1.8519480139028566e-01  1.8539417998539900e-01  1.8421553834069693e-01  1.8181004822369837e-01  1.7773594716802713e-01  1.7222716657356821e-01  1.6491355028217652e-01  1.5612888718694395e-01  1.4539915745335941e-01  1.3293022131725096e-01  1.1853148225334821e-01  1.0292591848641608e-01  8.5422149918249951e-02  6.6875375477569568e-02  4.6539479414656901e-02  2.5845093293151416e-02  1.1582208667629012e-03  -1.6272690255966480e-02  1.8188436899631718e-03  -1.3879134118762971e-03  8.4682658658821117e-03  5.8577699343534580e-02  1.2148235722448809e-01  1.6370938576322763e-01  1.8572841215141531e-01  1.9573832912413480e-01  1.9856152578288289e-01  1.9974648997490482e-01  2.0266555803958852e-01  2.0649609846883502e-01  2.1066788967555761e-01  2.1438198211796344e-01  2.1754949675268592e-01  2.1960413032309861e-01  2.2057421915098291e-01 