<?xml version="1.0"?>
<VTKFile type="UnstructuredGrid"  version="0.1"  >
<UnstructuredGrid>
<Piece  NumberOfPoints="1089" NumberOfCells="1024">
<Points>
<DataArray  type="Float64"  NumberOfComponents="3"  format="ascii">0 0 0  0.03125 0 0  0.0625 0 0  0.09375 0 0  0.125 0 0  0.15625 0 0  0.1875 0 0  0.21875 0 0  0.25 0 0  0.28125 0 0  0.3125 0 0  0.34375 0 0  0.375 0 0  0.40625 0 0  0.4375 0 0  0.46875 0 0  0.5 0 0  0.53125 0 0  0.5625 0 0  0.59375 0 0  0.625 0 0  0.65625 0 0  0.6875 0 0  0.71875 0 0  0.75 0 0  0.78125 0 0  0.8125 0 0  0.84375 0 0  0.875 0 0  0.90625 0 0  0.9375 0 0  0.96875 0 0  1 0 0  0 0.03125 0  0.03125 0.03125 0  0.0625 0.03125 0  0.09375 0.03125 0  0.125 0.03125 0  0.15625 0.03125 0  0.1875 0.03125 0  0.21875 0.03125 0  0.25 0.03125 0  0.28125 0.03125 0  0.3125 0.03125 0  0.34375 0.03125 0  0.375 0.03125 0  0.40625 0.03125 0  0.4375 0.03125 0  0.46875 0.03125 0  0.5 0.03125 0  0.53125 0.03125 0  0.5625 0.03125 0  0.59375 0.03125 0  0.625 0.03125 0  0.65625 0.03125 0  0.6875 0.03125 0  0.71875 0.03125 0  0.75 0.03125 0  0.78125 0.03125 0  0.8125 0.03125 0  0.84375 0.03125 0  0.875 0.03125 0  0.90625 0.03125 0  0.9375 0.03125 0  0.96875 0.03125 0  1 0.03125 0  0 0.0625 0  0.03125 0.0625 0  0.0625 0.0625 0  0.09375 0.0625 0  0.125 0.0625 0  0.15625 0.0625 0  0.1875 0.0625 0  0.21875 0.0625 0  0.25 0.0625 0  0.28125 0.0625 0  0.3125 0.0625 0  0.34375 0.0625 0  0.375 0.0625 0  0.40625 0.0625 0  0.4375 0.0625 0  0.46875 0.0625 0  0.5 0.0625 0  0.53125 0.0625 0  0.5625 0.0625 0  0.59375 0.0625 0  0.625 0.0625 0  0.65625 0.0625 0  0.6875 0.0625 0  0.71875 0.0625 0  0.75 0.0625 0  0.78125 0.0625 0  0.8125 0.0625 0  0.84375 0.0625 0  0.875 0.0625 0  0.90625 0.0625 0  0.9375 0.0625 0  0.96875 0.0625 0  1 0.0625 0  0 0.09375 0  0.03125 0.09375 0  0.0625 0.09375 0  0.09375 0.09375 0  0.125 0.09375 0  0.15625 0.09375 0  0.1875 0.09375 0  0.21875 0.09375 0  0.25 0.09375 0  0.28125 0.09375 0  0.3125 0.09375 0  0.34375 0.09375 0  0.375 0.09375 0  0.40625 0.09375 0  0.4375 0.09375 0  0.46875 0.09375 0  0.5 0.09375 0  0.53125 0.09375 0  0.5625 0.09375 0  0.59375 0.09375 0  0.625 0.09375 0  0.65625 0.09375 0  0.6875 0.09375 0  0.71875 0.09375 0  0.75 0.09375 0  0.78125 0.09375 0  0.8125 0.09375 0  0.84375 0.09375 0  0.875 0.09375 0  0.90625 0.09375 0  0.9375 0.09375 0  0.96875 0.09375 0  1 0.09375 0  0 0.125 0  0.03125 0.125 0  0.0625 0.125 0  0.09375 0.125 0  0.125 0.125 0  0.15625 0.125 0  0.1875 0.125 0  0.21875 0.125 0  0.25 0.125 0  0.28125 0.125 0  0.3125 0.125 0  0.34375 0.125 0  0.375 0.125 0  0.40625 0.125 0  0.4375 0.125 0  0.46875 0.125 0  0.5 0.125 0  0.53125 0.125 0  0.5625 0.125 0  0.59375 0.125 0  0.625 0.125 0  0.65625 0.125 0  0.6875 0.125 0  0.71875 0.125 0  0.75 0.125 0  0.78125 0.125 0  0.8125 0.125 0  0.84375 0.125 0  0.875 0.125 0  0.90625 0.125 0  0.9375 0.125 0  0.96875 0.125 0  1 0.125 0  0 0.15625 0  0.03125 0.15625 0  0.0625 0.15625 0  0.09375 0.15625 0  0.125 0.15625 0  0.15625 0.15625 0  0.1875 0.15625 0  0.21875 0.15625 0  0.25 0.15625 0  0.28125 0.15625 0  0.3125 0.15625 0  0.34375 0.15625 0  0.375 0.15625 0  0.40625 0.15625 0  0.4375 0.15625 0  0.46875 0.15625 0  0.5 0.15625 0  0.53125 0.15625 0  0.5625 0.15625 0  0.59375 0.15625 0  0.625 0.15625 0  0.65625 0.15625 0  0.6875 0.15625 0  0.71875 0.15625 0  0.75 0.15625 0  0.78125 0.15625 0  0.8125 0.15625 0  0.84375 0.15625 0  0.875 0.15625 0  0.90625 0.15625 0  0.9375 0.15625 0  0.96875 0.15625 0  1 0.15625 0  0 0.1875 0  0.03125 0.1875 0  0.0625 0.1875 0  0.09375 0.1875 0  0.125 0.1875 0  0.15625 0.1875 0  0.1875 0.1875 0  0.21875 0.1875 0  0.25 0.1875 0  0.28125 0.1875 0  0.3125 0.1875 0  0.34375 0.1875 0  0.375 0.1875 0  0.40625 0.1875 0  0.4375 0.1875 0  0.46875 0.1875 0  0.5 0.1875 0  0.53125 0.1875 0  0.5625 0.1875 0  0.59375 0.1875 0  0.625 0.1875 0  0.65625 0.1875 0  0.6875 0.1875 0  0.71875 0.1875 0  0.75 0.1875 0  0.78125 0.1875 0  0.8125 0.1875 0  0.84375 0.1875 0  0.875 0.1875 0  0.90625 0.1875 0  0.9375 0.1875 0  0.96875 0.1875 0  1 0.1875 0  0 0.21875 0  0.03125 0.21875 0  0.0625 0.21875 0  0.09375 0.21875 0  0.125 0.21875 0  0.15625 0.21875 0  0.1875 0.21875 0  0.21875 0.21875 0  0.25 0.21875 0  0.28125 0.21875 0  0.3125 0.21875 0  0.34375 0.21875 0  0.375 0.21875 0  0.40625 0.21875 0  0.4375 0.21875 0  0.46875 0.21875 0  0.5 0.21875 0  0.53125 0.21875 0  0.5625 0.21875 0  0.59375 0.21875 0  0.625 0.21875 0  0.65625 0.21875 0  0.6875 0.21875 0  0.71875 0.21875 0  0.75 0.21875 0  0.78125 0.21875 0  0.8125 0.21875 0  0.84375 0.21875 0  0.875 0.21875 0  0.90625 0.21875 0  0.9375 0.21875 0  0.96875 0.21875 0  1 0.21875 0  0 0.25 0  0.03125 0.25 0  0.0625 0.25 0  0.09375 0.25 0  0.125 0.25 0  0.15625 0.25 0  0.1875 0.25 0  0.21875 0.25 0  0.25 0.25 0  0.28125 0.25 0  0.3125 0.25 0  0.34375 0.25 0  0.375 0.25 0  0.40625 0.25 0  0.4375 0.25 0  0.46875 0.25 0  0.5 0.25 0  0.53125 0.25 0  0.5625 0.25 0  0.59375 0.25 0  0.625 0.25 0  0.65625 0.25 0  0.6875 0.25 0  0.71875 0.25 0  0.75 0.25 0  0.78125 0.25 0  0.8125 0.25 0  0.84375 0.25 0  0.875 0.25 0  0.90625 0.25 0  0.9375 0.25 0  0.96875 0.25 0  1 0.25 0  0 0.28125 0  0.03125 0.28125 0  0.0625 0.28125 0  0.09375 0.28125 0  0.125 0.28125 0  0.15625 0.28125 0  0.1875 0.28125 0  0.21875 0.28125 0  0.25 0.28125 0  0.28125 0.28125 0  0.3125 0.28125 0  0.34375 0.28125 0  0.375 0.28125 0  0.40625 0.28125 0  0.4375 0.28125 0  0.46875 0.28125 0  0.5 0.28125 0  0.53125 0.28125 0  0.5625 0.28125 0  0.59375 0.28125 0  0.625 0.28125 0  0.65625 0.28125 0  0.6875 0.28125 0  0.71875 0.28125 0  0.75 0.28125 0  0.78125 0.28125 0  0.8125 0.28125 0  0.84375 0.28125 0  0.875 0.28125 0  0.90625 0.28125 0  0.9375 0.28125 0  0.96875 0.28125 0  1 0.28125 0  0 0.3125 0  0.03125 0.3125 0  0.0625 0.3125 0  0.09375 0.3125 0  0.125 0.3125 0  0.15625 0.3125 0  0.1875 0.3125 0  0.21875 0.3125 0  0.25 0.3125 0  0.28125 0.3125 0  0.3125 0.3125 0  0.34375 0.3125 0  0.375 0.3125 0  0.40625 0.3125 0  0.4375 0.3125 0  0.46875 0.3125 0  0.5 0.3125 0  0.53125 0.3125 0  0.5625 0.3125 0  0.59375 0.3125 0  0.625 0.3125 0  0.65625 0.3125 0  0.6875 0.3125 0  0.71875 0.3125 0  0.75 0.3125 0  0.78125 0.3125 0  0.8125 0.3125 0  0.84375 0.3125 0  0.875 0.3125 0  0.90625 0.3125 0  0.9375 0.3125 0  0.96875 0.3125 0  1 0.3125 0  0 0.34375 0  0.03125 0.34375 0  0.0625 0.34375 0  0.09375 0.34375 0  0.125 0.34375 0  0.15625 0.34375 0  0.1875 0.34375 0  0.21875 0.34375 0  0.25 0.34375 0  0.28125 0.34375 0  0.3125 0.34375 0  0.34375 0.34375 0  0.375 0.34375 0  0.40625 0.34375 0  0.4375 0.34375 0  0.46875 0.34375 0  0.5 0.34375 0  0.53125 0.34375 0  0.5625 0.34375 0  0.59375 0.34375 0  0.625 0.34375 0  0.65625 0.34375 0  0.6875 0.34375 0  0.71875 0.34375 0  0.75 0.34375 0  0.78125 0.34375 0  0.8125 0.34375 0  0.84375 0.34375 0  0.875 0.34375 0  0.90625 0.34375 0  0.9375 0.34375 0  0.96875 0.34375 0  1 0.34375 0  0 0.375 0  0.03125 0.375 0  0.0625 0.375 0  0.09375 0.375 0  0.125 0.375 0  0.15625 0.375 0  0.1875 0.375 0  0.21875 0.375 0  0.25 0.375 0  0.28125 0.375 0  0.3125 0.375 0  0.34375 0.375 0  0.375 0.375 0  0.40625 0.375 0  0.4375 0.375 0  0.46875 0.375 0  0.5 0.375 0  0.53125 0.375 0  0.5625 0.375 0  0.59375 0.375 0  0.625 0.375 0  0.65625 0.375 0  0.6875 0.375 0  0.71875 0.375 0  0.75 0.375 0  0.78125 0.375 0  0.8125 0.375 0  0.84375 0.375 0  0.875 0.375 0  0.90625 0.375 0  0.9375 0.375 0  0.96875 0.375 0  1 0.375 0  0 0.40625 0  0.03125 0.40625 0  0.0625 0.40625 0  0.09375 0.40625 0  0.125 0.40625 0  0.15625 0.40625 0  0.1875 0.40625 0  0.21875 0.40625 0  0.25 0.40625 0  0.28125 0.40625 0  0.3125 0.40625 0  0.34375 0.40625 0  0.375 0.40625 0  0.40625 0.40625 0  0.4375 0.40625 0  0.46875 0.40625 0  0.5 0.40625 0  0.53125 0.40625 0  0.5625 0.40625 0  0.59375 0.40625 0  0.625 0.40625 0  0.65625 0.40625 0  0.6875 0.40625 0  0.71875 0.40625 0  0.75 0.40625 0  0.78125 0.40625 0  0.8125 0.40625 0  0.84375 0.40625 0  0.875 0.40625 0  0.90625 0.40625 0  0.9375 0.40625 0  0.96875 0.40625 0  1 0.40625 0  0 0.4375 0  0.03125 0.4375 0  0.0625 0.4375 0  0.09375 0.4375 0  0.125 0.4375 0  0.15625 0.4375 0  0.1875 0.4375 0  0.21875 0.4375 0  0.25 0.4375 0  0.28125 0.4375 0  0.3125 0.4375 0  0.34375 0.4375 0  0.375 0.4375 0  0.40625 0.4375 0  0.4375 0.4375 0  0.46875 0.4375 0  0.5 0.4375 0  0.53125 0.4375 0  0.5625 0.4375 0  0.59375 0.4375 0  0.625 0.4375 0  0.65625 0.4375 0  0.6875 0.4375 0  0.71875 0.4375 0  0.75 0.4375 0  0.78125 0.4375 0  0.8125 0.4375 0  0.84375 0.4375 0  0.875 0.4375 0  0.90625 0.4375 0  0.9375 0.4375 0  0.96875 0.4375 0  1 0.4375 0  0 0.46875 0  0.03125 0.46875 0  0.0625 0.46875 0  0.09375 0.46875 0  0.125 0.46875 0  0.15625 0.46875 0  0.1875 0.46875 0  0.21875 0.46875 0  0.25 0.46875 0  0.28125 0.46875 0  0.3125 0.46875 0  0.34375 0.46875 0  0.375 0.46875 0  0.40625 0.46875 0  0.4375 0.46875 0  0.46875 0.46875 0  0.5 0.46875 0  0.53125 0.46875 0  0.5625 0.46875 0  0.59375 0.46875 0  0.625 0.46875 0  0.65625 0.46875 0  0.6875 0.46875 0  0.71875 0.46875 0  0.75 0.46875 0  0.78125 0.46875 0  0.8125 0.46875 0  0.84375 0.46875 0  0.875 0.46875 0  0.90625 0.46875 0  0.9375 0.46875 0  0.96875 0.46875 0  1 0.46875 0  0 0.5 0  0.03125 0.5 0  0.0625 0.5 0  0.09375 0.5 0  0.125 0.5 0  0.15625 0.5 0  0.1875 0.5 0  0.21875 0.5 0  0.25 0.5 0  0.28125 0.5 0  0.3125 0.5 0  0.34375 0.5 0  0.375 0.5 0  0.40625 0.5 0  0.4375 0.5 0  0.46875 0.5 0  0.5 0.5 0  0.53125 0.5 0  0.5625 0.5 0  0.59375 0.5 0  0.625 0.5 0  0.65625 0.5 0  0.6875 0.5 0  0.71875 0.5 0  0.75 0.5 0  0.78125 0.5 0  0.8125 0.5 0  0.84375 0.5 0  0.875 0.5 0  0.90625 0.5 0  0.9375 0.5 0  0.96875 0.5 0  1 0.5 0  0 0.53125 0  0.03125 0.53125 0  0.0625 0.53125 0  0.09375 0.53125 0  0.125 0.53125 0  0.15625 0.53125 0  0.1875 0.53125 0  0.21875 0.53125 0  0.25 0.53125 0  0.28125 0.53125 0  0.3125 0.53125 0  0.34375 0.53125 0  0.375 0.53125 0  0.40625 0.53125 0  0.4375 0.53125 0  0.46875 0.53125 0  0.5 0.53125 0  0.53125 0.53125 0  0.5625 0.53125 0  0.59375 0.53125 0  0.625 0.53125 0  0.65625 0.53125 0  0.6875 0.53125 0  0.71875 0.53125 0  0.75 0.53125 0  0.78125 0.531
[...]
<PointData  Scalars="v_sol"> 
<DataArray  type="Float64"  Name="v_sol"  format="ascii">3.5123981043302560e-05  4.7965336563566077e-04  5.8782396702928316e-04  3.2129649447460752e-04  1.5462094936403728e-05  -7.9587912419787357e-05  -1.3594672610556802e-05  -2.6456178229289666e-04  -9.3593170427283296e-04  -1.8269388215911117e-03  -3.1015943711498388e-03  -4.3829407226010815e-03  -4.9325911603324401e-03  -4.4357001363267831e-03  -3.0630819572306320e-03  -1.2221536045587326e-03  7.3806607267727794e-04  2.5452739870781825e-03  4.0288772898694047e-03  5.0531506521817385e-03  5.5213659245256525e-03  5.3416865190813569e-03  4.4764177514251841e-03  2.9828890928323163e-03  1.0374535409599448e-03  -8.8960990771374886e-04  -2.0699963559394599e-03  -2.2026693611723199e-03  -1.6898031723764329e-03  -1.0866245722529688e-03  -6.4957267200629811e-04  -3.0218339462569652e-04  4.3150764875500373e-06  9.9603262888594182e-05  -2.5546369758756935e-03  -3.2106840439192763e-03  -1.6571516894153388e-03  -3.9270157016824424e-05  2.6878357720463319e-04  -1.2480989047239475e-04  1.4146645843981323e-03  4.4138608472404986e-03  8.1392585013576706e-03  1.4416384364969590e-02  2.0878493433480621e-02  2.4018437276317150e-02  2.2935637622601888e-02  1.7986905598655057e-02  1.0122269540665474e-02  2.5025207322995510e-04  -1.0611635938436158e-02  -2.1158251122512711e-02  -2.9532061618835339e-02  -3.3596901349316616e-02  -3.1761592230157946e-02  -2.4217388811876590e-02  -1.3170062570660680e-02  -1.7067494032182264e-03  7.3503149431367893e-03  1.1748189870093611e-02  1.1326896678206109e-02  8.3271190294834374e-03  5.2253860520156637e-03  3.1634787254898595e-03  1.4097428202238663e-03  -2.0936273879436625e-04  -4.3312571782978668e-04  -9.0779926016377448e-03  -9.7016448711611594e-03  -4.1552317376118567e-03  1.8559883282579697e-03  6.1605479117016974e-03  1.0667353288403573e-02  2.0548762345471802e-02  3.7506441509876892e-02  5.6052006500645575e-02  6.9591955779558318e-02  7.4128113283500122e-02  6.9210928555620041e-02  5.6709583779601551e-02  3.8987454359277016e-02  1.7912829984902803e-02  -5.3002837299125308e-03  -2.9700819373847744e-02  -5.3901658703143659e-02  -7.5364833428485004e-02  -9.0006111787967427e-02  -9.3140541905896962e-02  -8.2134742102978178e-02  -5.9598841074889018e-02  -3.2677879534231298e-02  -7.8979065033869846e-03  1.1196623405207877e-02  2.1627566491659669e-02  2.2732659746032859e-02  1.8173923989976137e-02  1.2525539789892294e-02  7.1735439910059458e-03  2.2645434318850432e-04  -1.5289525023670667e-03  -1.6995790025018553e-02  -1.3971524312626502e-02  -2.0445899171390031e-03  1.0027934981539054e-02  2.3664911537230073e-02  4.5238458154944018e-02  7.5567740338282216e-02  1.0533531514301758e-01  1.2445170503911250e-01  1.2884715842711103e-01  1.2030561226126682e-01  1.0261019694744178e-01  7.9260199987568558e-02  5.2596612962743851e-02  2.3859043586859995e-02  -6.5701656636809750e-03  -3.8656466881231366e-02  -7.2170757775609592e-02  -1.0574752773664514e-01  -1.3575556471758179e-01  -1.5536707928711491e-01  -1.5601627245899347e-01  -1.3284235750683024e-01  -9.1780451294741383e-02  -4.8118428332298506e-02  -1.3336586085794822e-02  1.0973820918052352e-02  2.4140438132908695e-02  2.6237411946627674e-02  2.1884405010698594e-02  1.4616789226199800e-02  1.0405672833366858e-03  -3.5450651422060382e-03  -2.4426961068359503e-02  -1.1670039881149471e-02  1.1175093416605443e-02  3.3777519064797965e-02  6.6534777602904660e-02  1.0986290279850500e-01  1.5066609834000247e-01  1.7539598233098205e-01  1.7989317384148670e-01  1.6807062502464906e-01  1.4563145877707789e-01  1.1763861356899252e-01  8.7304869613890404e-02  5.6312931624411491e-02  2.5090117438697625e-02  -6.5722407433366553e-03  -3.9297134273365925e-02  -7.3815886553939683e-02  -1.1073285357659042e-01  -1.4963814107702098e-01  -1.8719917601924832e-01  -2.1446076465597072e-01  -2.1704345748103393e-01  -1.8381981875049083e-01  -1.2186402374641643e-01  -5.8154152418138705e-02  -1.3463143615026834e-02  1.3007103589234551e-02  2.5563849003079269e-02  2.6901286350640104e-02  2.0297997292201258e-02  1.6118534957335685e-03  -6.5127583590591448e-03  -2.6859155417545827e-02  -4.5043843569747934e-04  3.6603034493180038e-02  7.9795450868709747e-02  1.3441460823856402e-01  1.8722902122823812e-01  2.1904107694734484e-01  2.2440778055406799e-01  2.0932778094560739e-01  1.8221936176648931e-01  1.5033159502455026e-01  1.1770839247952435e-01  8.5879214440051088e-02  5.4797767204387816e-02  2.3998807882324863e-02  -7.0352422062658990e-03  -3.8682419270185543e-02  -7.1260325400369834e-02  -1.0522669475430610e-01  -1.4145929241211336e-01  -1.8119306787749190e-01  -2.2367731780392924e-01  -2.6032884024195407e-01  -2.7016503285285748e-01  -2.3070022191993833e-01  -1.4669412460183809e-01  -6.1020261185072346e-02  -7.6404768292108148e-03  1.8226512766801022e-02  2.7612339552714169e-02  2.3131507230139972e-02  1.8500775162581485e-03  -9.0986630737369140e-03  -1.9045063893391143e-02  2.5332891712615605e-02  7.9558521015731701e-02  1.4413484010556471e-01  2.1051097126580334e-01  2.5264069836037334e-01  2.6165458731558866e-01  2.4535198046358148e-01  2.1529119717910666e-01  1.8138491963200085e-01  1.4820738859213095e-01  1.1661103403307996e-01  8.5844619630050939e-02  5.5237079564892058e-02  2.4388851082023759e-02  -6.8790654420456693e-03  -3.8660264071549287e-02  -7.0989132614891939e-02  -1.0377628226520821e-01  -1.3696605979059240e-01  -1.7105778870602795e-01  -2.0836049282774524e-01  -2.5192723749552454e-01  -2.9640448482224074e-01  -3.1440453732535040e-01  -2.6767998058436260e-01  -1.5797415425929398e-01  -5.2070795869323915e-02  4.1373700294691220e-03  2.4893626111258324e-02  2.4514615043321308e-02  2.0989607163302980e-03  -9.3614990611113388e-03  1.1036641950476836e-03  6.3256680652758482e-02  1.3739720404694006e-01  2.1668450906856121e-01  2.7424998060582290e-01  2.9266501365070779e-01  2.7939406484621671e-01  2.4846840208331752e-01  2.1362589727680648e-01  1.8041546742937245e-01  1.4911716122334362e-01  1.1846704892870807e-01  8.7781793477842054e-02  5.6857484664142727e-02  2.5623478394166076e-02  -5.9604472489801835e-03  -3.7964989776770479e-02  -7.0381950245922309e-02  -1.0318245151264364e-01  -1.3616594967350043e-01  -1.6901434565871196e-01  -2.0159651507821688e-01  -2.3627875102411935e-01  -2.7941667674801363e-01  -3.2980378594454202e-01  -3.5197079285744393e-01  -2.8848001391492750e-01  -1.4627889082533224e-01  -2.9477354951687507e-02  1.8125964130431407e-02  2.6204533453006201e-02  2.4306337053654785e-03  -5.5627540845638113e-03  3.4516188203640601e-02  1.1335923307896703e-01  2.0326109354244584e-01  2.7966623499778354e-01  3.1641858221027774e-01  3.1170938004426740e-01  2.8228177995233461e-01  2.4659980955698793e-01  2.1335636707145250e-01  1.8219694770879677e-01  1.5170496152060203e-01  1.2091727301184470e-01  8.9935435645206480e-02  5.8655796570658530e-02  2.7157396421295051e-02  -4.6630198973422726e-03  -3.6798145323594149e-02  -6.9285353086921908e-02  -1.0208032933843215e-01  -1.3508144060954838e-01  -1.6809170371751880e-01  -2.0064918852665956e-01  -2.3224070894315901e-01  -2.6522626193775506e-01  -3.0937687157308330e-01  -3.6540942671906462e-01  -3.8238370351668372e-01  -2.8210229165751000e-01  -1.0551587011182698e-01  1.8558324623627032e-03  2.5473694873928591e-02  5.2393702310758556e-03  2.4032266756761215e-03  7.8629879729011601e-02  1.6896283230480433e-01  2.6445353650524317e-01  3.2709362609546960e-01  3.4020275762539443e-01  3.1663807041629227e-01  2.8136433751609458e-01  2.4749440956320776e-01  2.1628897658696936e-01  1.8563414819143248e-01  1.5473605285866435e-01  1.2350569661427550e-01  9.2170059640306543e-02  6.0627764043123193e-02  2.8947871407272213e-02  -2.9939795370982846e-03  -3.5155548104016873e-02  -6.7623121327051672e-02  -1.0034194106718401e-01  -1.3335388724764552e-01  -1.6655583905715241e-01  -1.9982175588456277e-01  -2.3239880368056326e-01  -2.6311979935895224e-01  -2.9525650740240522e-01  -3.4404600089206855e-01  -4.0519853451437970e-01  -3.9660509886849604e-01  -2.3138930817240949e-01  -4.2912049479324900e-02  2.6075322584745438e-02  5.4904391180429675e-03  1.3300463008206703e-02  1.2882620506969064e-01  2.2406038177925428e-01  3.1697639828610708e-01  3.5861953209243697e-01  3.5101932425007687e-01  3.1847165448931675e-01  2.8279683904534791e-01  2.5036436026852332e-01  2.1956375985521875e-01  1.8852531815539478e-01  1.5729138426280373e-01  1.2588349356635378e-01  9.4394113955992134e-02  6.2711411011747847e-02  3.0905737315081165e-02  -1.1312369804962047e-03  -3.3350302555370449e-02  -6.5835246393531735e-02  -9.8509249591021295e-02  -1.3140004080780862e-01  -1.6441319996428597e-01  -1.9766638268230360e-01  -2.3124120665756542e-01  -2.6424622847729573e-01  -2.9401687492238049e-01  -3.2723623073041752e-01  -3.8669620242804692e-01  -4.4482245940413628e-01  -3.6840073088606701e-01  -1.2858555315131129e-01  1.9076620410593881e-02  2.8287605980737750e-03  2.4791437075913345e-02  1.7921841281195680e-01  2.7346517778962981e-01  3.5679498530397430e-01  3.7842523968011776e-01  3.5727705691315947e-01  3.1982465279943867e-01  2.8558718878163913e-01  2.5441456860561262e-01  2.2338924848852559e-01  1.9191336345101365e-01  1.6036291448623646e-01  1.2863344947470848e-01  9.6877985550918672e-02  6.5024448620086994e-02  3.3115912777533556e-02  1.0256816578866333e-03  -3.1209979471822941e-02  -6.3686238536046658e-02  -9.6368181869482691e-02  -1.2933644143406606e-01  -1.6251929677361335e-01  -1.9581787583783128e-01  -2.2913619181478728e-01  -2.6305606955713895e-01  -2.9625303916387163e-01  -3.2469292345746292e-01  -3.6495260313627115e-01  -4.4060945752439040e-01  -4.6094032305702337e-01  -2.5588994233287982e-01  -1.2397102982811098e-02  1.8239322407324086e-02  3.4214467785737092e-02  2.2522007318644741e-01  3.1488417552375109e-01  3.8717304460201479e-01  3.9159335536751433e-01  3.6108582006291923e-01  3.2345744516967184e-01  2.9041173330147557e-01  2.5836580305845525e-01  2.2666038720451928e-01  1.9475429079265924e-01  1.6292904696752711e-01  1.3103395262742873e-01  9.9255554653716715e-02  6.7365611651245660e-02  3.5412495155432808e-02  3.2877756352058221e-03  -2.8957709027676519e-02  -6.1422073019274208e-02  -9.4061016111979368e-02  -1.2693772672009071e-01  -1.6005709685895586e-01  -1.9358792184713497e-01  -2.2736038321203153e-01  -2.6118934423712165e-01  -2.9578315291940194e-01  -3.2793020532290718e-01  -3.5642508387630328e-01  -4.1743771077863728e-01  -4.9617942106616464e-01  -3.8788408575714534e-01  -7.4550516975039116e-02  3.9531297722852507e-02  4.0066998251723447e-02  2.6293489806663350e-01  3.4759164801603387e-01  4.0814105296827408e-01  4.0055596541746513e-01  3.6591239264088471e-01  3.2741337939782872e-01  2.9432304097075229e-01  2.6228305373400018e-01  2.3034319973720360e-01  1.9806289138793318e-01  1.6599863223030406e-01  1.3392665547636309e-01  1.0196354583032703e-01  6.9902353727917421e-02  3.7897927706934093e-02  5.7820481618015051e-03  -2.6423050618367954e-02  -5.8849989873610183e-02  -9.1485242149687993e-02  -1.2443538456386728e-01  -1.5763373552426074e-01  -1.9112866018778335e-01  -2.2504170164588483e-01  -2.5930854937094511e-01  -2.9408993720038779e-01  -3.2952886630531469e-01  -3.5795565489667358e-01  -3.9850545338074284e-01  -4.9198142613615203e-01  -4.8706728521115283e-01  -1.6358186437370775e-01  4.7901233653193327e-02  4.1329441929736477e-02  2.9052608701268384e-01  3.7206091637536748e-01  4.2358080609107013e-01  4.0820426737715337e-01  3.6987367220932077e-01  3.3227990244816369e-01  2.9925280093183526e-01  2.6603401224543044e-01  2.3335644482784781e-01  2.0071634266735791e-01  1.6847479079182404e-01  1.3627886473868564e-01  1.0427439050377833e-01  7.2297763146567218e-02  4.0391266271878973e-02  8.3383598599345073e-03  -2.3788516726537558e-02  -5.6121986346356866e-02  -8.8642814386904870e-02  -1.2147954291206980e-01  -1.5467138148491780e-01  -1.8831266092518809e-01  -2.2245583666120089e-01  -2.5713868972540377e-01  -2.9194405688787212e-01  -3.2857457660918576e-01  -3.6193303098513624e-01  -3.9042857058421160e-01  -4.7175930926868037e-01  -5.4467694963849800e-01  -2.6750666775905324e-01  4.5658364844952441e-02  3.8401763664534933e-02  3.0643440305007408e-01  3.8888881894730759e-01  4.3279679898341966e-01  4.1384443741581095e-01  3.7478822604612649e-01  3.3641792526490005e-01  3.0239674178410736e-01  2.6932864870092754e-01  2.3656662238852327e-01  2.0373757603786680e-01  1.7132400602758996e-01  1.3900750842283369e-01  1.0695956308200218e-01  7.4961801493140953e-02  4.3031516901558133e-02  1.1070057674662268e-02  -2.0906895995845238e-02  -5.3091884671962131e-02  -8.5508504741149613e-02  -1.1827934859560327e-01  -1.5144248817156725e-01  -1.8507090722004219e-01  -2.1918583466156369e-01  -2.5426771916709495e-01  -2.8982003056644473e-01  -3.2617245393997096e-01  -3.6386471372842127e-01  -3.9048368688911417e-01  -4.5096747593068309e-01  -5.6847162198757040e-01  -3.7049148470352716e-01  3.4539033806461693e-02  3.1697145564617606e-02  3.1044799961902481e-01  3.9866892967223494e-01  4.3852961456291756e-01  4.1916135954701189e-01  3.7818022536943491e-01  3.4052669417256204e-01  3.0645507040951636e-01  2.7243042498526066e-01  2.3897823971729371e-01  2.0592324250527766e-01  1.7337430947637633e-01  1.4105717106039345e-01  1.0907876452389653e-01  7.7210464883133184e-02  4.5509997750782120e-02  1.3830366702980041e-02  -1.7929071117894831e-02  -4.9868972722535113e-02  -8.2037930147211571e-02  -1.1457245400386903e-01  -1.4756376446117028e-01  -1.8123070256779633e-01  -2.1550365366701829e-01  -2.5056453879138418e-01  -2.8673544095455955e-01  -3.2333738033617521e-01  -3.6295318582041974e-01  -3.9361640587232338e-01  -4.3580528794451029e-01  -5.7162716122177160e-01  -4.5994201689821262e-01  1.6153037546564639e-02  2.2503547550914924e-02  3.0203215485548890e-01  4.0156334106248998e-01  4.3913025420134311e-01  4.2225807410830785e-01  3.8218562910761428e-01  3.4345351641535488e-01  3.0832419370884157e-01  2.7470315948348023e-01  2.4140392966558272e-01  2.0830133415883267e-01  1.7568753262262057e-01  1.4339270747708946e-01  1.1146119108061900e-01  7.9733654773101278e-02  4.8222826792451753e-02  1.6746517082757706e-02  -1.4747990219317789e-02  -4.6342941953301769e-02  -7.8193489869067351e-02  -1.1048284521023423e-01  -1.4322657266865788e-01  -1.7666516189392428e-01  -2.1085140058740384e-01  -2.4605174965562923e-01  -2.8262631436371138e-01  -3.1978437023467887e-01  -3.5963839628515759e-01  -3.9630271332036399e-01  -4.2591964593691461e-01  -5.6376293454718318e-01  -5.3174279405276703e-01  -7.0249391699912286e-03  1.1787805263158991e-02  2.8171209452636264e-01  3.9741404725679524e-01  4.3682524076110241e-01  4.2466961899069466e-01  3.8438918802662786e-01  3.4615682869633080e-01  3.1123622715913446e-01  2.7674150974358014e-01  2.4289506013417611e-01  2.0965592767377952e-01  1.7702306137518337e-01  1.4483785755351491e-01  1.1310526483181896e-01  8.1693055316773205e-02  5.0539325354535848e-02  1.9496984307887138e-02  -1.1469234341170162e-02  -4.2610023190331768e-02  -7.3968966837385020e-02  -1.0579914929030829e-01  -1.3810699248979375e-01  -1.7132520978599799e-01  -2.0533125802715851e-01  -2.4048326216726126e-01  -2.7693046890610185e-01  -3.1522442360532066e-01  -3.5440028702395643e-01  -3.9653142520891227e-01  -4.1925179870764656e-01  -5.5053185451119369e-01  -5.8635095873449061e-01  -3.1939763046504033e-02  1.1677055808072656e-03  2.4986294689906050e-01  3.8538841225661014e-01  4.2934488007017219e-01  4.2397141279846118e-01  3.8737365333765444e-01  3.4760826663929628e-01  3.1166950598304399e-01  2.7773883548303163e-01  2.4425147218671839e-01  2.1106537419261817e-01  1.7848865283343054e-01  1.4644814640732748e-01  1.1492651797406199e-01  8.3805958553644408e-02  5.3055558942961406e-02  2.2458809879391840e-02  -7.9584148523526681e-03  -3.8602356235747662e-02  -6.9314280335690440e-02  -1.0060450706347103e-01  -1.3231963968501112e-01  -1.6506127014623057e-01  -1.9851375998593385e-01  -2.3371772845289568e-01  -2.6978455564716375e-01  -3.0894075024532397e-01  -3.4729540416661137e-01  -3.9353600283620815e-01  -4.1310811798362196e-01  -5.3410987162649393e-01  -6.2684857513622427e-01  -5.6654045675385234e-02  -8.1181270172745561e-03  2.0856118641707799e-01  3.6420106640746458e-01  4.1865342190808363e-01  4.2148496345576519e-01  3.8828121766747814e-01  3.4931642308277022e-01  3.1342503953201639e-01  2.7848036089402955e-01  2.4449506103038859e-01  2.1125669724092527e-01  1.7875432892081200e-01  1.4691963976768374e-01  1.1578736849341312e-01  8.5124682152963912e-02  5.5027252053791928e-02  2.5069327761305184e-02  -4.5610096862207768e-03  -3.4426400801941745e-02  -6.4228253615388906e-02  -9.4765838975504821e-02  -1.2562216307041002e-01  -1.5778284182259003e-01  -1.9053108484982573e-01  -2.2541524776510613e-01  -2.6075034554090165e-01  -3.0067377578647286e-01  -3.3813490874861452e-01  -3.8690257074747014e-01  -4.0582397474115994e-01  -5.1528901115674230e-01  -6.5589007062361382e-01  -7.9962950704873165e-02  -1.4512335928111986e-02  1.6073597985993682e-01  3.3184931949779523e-01  4.0128525969384859e-01  4.1433417803159528e-01  3.8959509144599064e-01  3.4992838832352452e-01  3.1253912941107681e-01  2.7813898701534273e-01  2.4448540102669616e-01  2.1132476628452340e-01  1.7899661514214807e-01  1.4737469941242703e-01  1.1667569259040422e-01  8.6467214611855830e-02  5.7043767071508704e-02  2.7801791288170397e-02  -9.2391073590386205e-04  -2.9898786629891799e-02  -5.8701421917316143e-02  -8.8353732720008779e-02  -1.1810923648693629e-01  -1.4935665306279958e-01  -1.8103882273171282e-01  -2.1541864019140367e-01  -2.4990029552708179e-01  -2.8990799473430129e-01  -3.2656657400654915e-01  -3.7649091859691802e-01  -3.9580685309922553e-01  -4.9385432932773299e-01  -6.7617587264075141e-01  -1.0163214067910614e-01  -1.7065797866683784e-02  1.1167470700056864e-01  2.8695275057550601e-01  3.7815828618365860e-01  4.0335168680532713e-01  3.8697854390191422e-01  3.5150859034412091e-01  3.1359827226720405e-01  2.7744618582375863e-01  2.4314065655942729e-01  2.0985376732161964e-01  1.7771570667803741e-01  1.4636052091065316e-01  1.1624542168663161e-01  8.6749458410509461e-02  5.8254685919118476e-02  3.0010773664511783e-02  2.4391666831532189e-03  -2.5385420003144168e-02  -5.2887836989983707e-02  -8.1244968012159871e-02  -1.0956587831499996e-01  -1.3973091542960278e-01  -1.7014279894513940e-01  -2.0346517357275060e-01  -2.3680630354399301e-01  -2.7649223600694006e-01  -3.1222403187581277e-01  -3.6202157611296015e-01  -3.8230979145705729e-01  -4.6953249815418624e-01  -6.8927644226719020e-01  -1.2164082224000422e-01  -1.5275501620001601e-02  6.6930086464458000e-02  2.2973663909723399e-01  3.4327163871351485e-01  3.8532730614279848e-01  3.8232632679916662e-01  3.5074627885405307e-01  3.1219975721089865e-01  2.7584691069690914e-01  2.4142675568844565e-01  2.0798651364543208e-01  1.7607648214528812e-01  1.4510009592798831e-01  1.1557391575400028e-01  8.6834938460934596e-02  5.9307577221299833e-02  3.2165939155459046e-02  5.8752797658819999e-03  -2.0575719319384400e-02  -4.6558458243744709e-02  -7.3421759158070601e-02  -1.0022566822365056e-01  -1.2888580523805762e-01  -1.5746278471215563e-01  -1.8947899083809794e-01  -2.2153376369711264e-01  -2.5998519971283396e-01  -2.9468227573269729e-01  -3.4321453488623693e-01  -3.6431906270820780e-01  -4.4177421991709614e-01  -6.9678168989849532e-01  -1.4038951729958138e-01  -1.0358028559860398e-02  3.1690047563545876e-02  1.6571466348745753e-01  2.9706315668551803e-01  3.5959261857758190e-01  3.6970161298107457e-01  3.4923753529393314e-01  3.1294513208371288e-01  2.7393015939317583e-01  2.3807748503987647e-01  2.0418385061289046e-01  1.7232676220402798e-01  1.4181863931826802e-01  1.1309791829454327e-01  8.5435017622099485e-02  5.9204875960292377e-02  3.3537066904859601e-02  8.8539798221223300e-03  -1.5897300506866684e-02  -4.0104782365529432e-02  -6.5138019667024594e-02  -8.9966433000014487e-02  -