<?xml version="1.0"?>
<VTKFile type="UnstructuredGrid"  version="0.1"  >
<UnstructuredGrid>
<Piece  NumberOfPoints="1089" NumberOfCells="1024">
<Points>
<DataArray  type="Float64"  NumberOfComponents="3"  format="ascii">0 0 0  0.03125 0 0  0.0625 0 0  0.09375 0 0  0.125 0 0  0.15625 0 0  0.1875 0 0  0.21875 0 0  0.25 0 0  0.28125 0 0  0.3125 0 0  0.34375 0 0  0.375 0 0  0.40625 0 0  0.4375 0 0  0.46875 0 0  0.5 0 0  0.53125 0 0  0.5625 0 0  0.59375 0 0  0.625 0 0  0.65625 0 0  0.6875 0 0  0.71875 0 0  0.75 0 0  0.78125 0 0  0.8125 0 0  0.84375 0 0  0.875 0 0  0.90625 0 0  0.9375 0 0  0.96875 0 0  1 0 0  0 0.03125 0  0.03125 0.03125 0  0.0625 0.03125 0  0.09375 0.03125 0  0.125 0.03125 0  0.15625 0.03125 0  0.1875 0.03125 0  0.21875 0.03125 0  0.25 0.03125 0  0.28125 0.03125 0  0.3125 0.03125 0  0.34375 0.03125 0  0.375 0.03125 0  0.40625 0.03125 0  0.4375 0.03125 0  0.46875 0.03125 0  0.5 0.03125 0  0.53125 0.03125 0  0.5625 0.03125 0  0.59375 0.03125 0  0.625 0.03125 0  0.65625 0.03125 0  0.6875 0.03125 0  0.71875 0.03125 0  0.75 0.03125 0  0.78125 0.03125 0  0.8125 0.03125 0  0.84375 0.03125 0  0.875 0.03125 0  0.90625 0.03125 0  0.9375 0.03125 0  0.96875 0.03125 0  1 0.03125 0  0 0.0625 0  0.03125 0.0625 0  0.0625 0.0625 0  0.09375 0.0625 0  0.125 0.0625 0  0.15625 0.0625 0  0.1875 0.0625 0  0.21875 0.0625 0  0.25 0.0625 0  0.28125 0.0625 0  0.3125 0.0625 0  0.34375 0.0625 0  0.375 0.0625 0  0.40625 0.0625 0  0.4375 0.0625 0  0.46875 0.0625 0  0.5 0.0625 0  0.53125 0.0625 0  0.5625 0.0625 0  0.59375 0.0625 0  0.625 0.0625 0  0.65625 0.0625 0  0.6875 0.0625 0  0.71875 0.0625 0  0.75 0.0625 0  0.78125 0.0625 0  0.8125 0.0625 0  0.84375 0.0625 0  0.875 0.0625 0  0.90625 0.0625 0  0.9375 0.0625 0  0.96875 0.0625 0  1 0.0625 0  0 0.09375 0  0.03125 0.09375 0  0.0625 0.09375 0  0.09375 0.09375 0  0.125 0.09375 0  0.15625 0.09375 0  0.1875 0.09375 0  0.21875 0.09375 0  0.25 0.09375 0  0.28125 0.09375 0  0.3125 0.09375 0  0.34375 0.09375 0  0.375 0.09375 0  0.40625 0.09375 0  0.4375 0.09375 0  0.46875 0.09375 0  0.5 0.09375 0  0.53125 0.09375 0  0.5625 0.09375 0  0.59375 0.09375 0  0.625 0.09375 0  0.65625 0.09375 0  0.6875 0.09375 0  0.71875 0.09375 0  0.75 0.09375 0  0.78125 0.09375 0  0.8125 0.09375 0  0.84375 0.09375 0  0.875 0.09375 0  0.90625 0.09375 0  0.9375 0.09375 0  0.96875 0.09375 0  1 0.09375 0  0 0.125 0  0.03125 0.125 0  0.0625 0.125 0  0.09375 0.125 0  0.125 0.125 0  0.15625 0.125 0  0.1875 0.125 0  0.21875 0.125 0  0.25 0.125 0  0.28125 0.125 0  0.3125 0.125 0  0.34375 0.125 0  0.375 0.125 0  0.40625 0.125 0  0.4375 0.125 0  0.46875 0.125 0  0.5 0.125 0  0.53125 0.125 0  0.5625 0.125 0  0.59375 0.125 0  0.625 0.125 0  0.65625 0.125 0  0.6875 0.125 0  0.71875 0.125 0  0.75 0.125 0  0.78125 0.125 0  0.8125 0.125 0  0.84375 0.125 0  0.875 0.125 0  0.90625 0.125 0  0.9375 0.125 0  0.96875 0.125 0  1 0.125 0  0 0.15625 0  0.03125 0.15625 0  0.0625 0.15625 0  0.09375 0.15625 0  0.125 0.15625 0  0.15625 0.15625 0  0.1875 0.15625 0  0.21875 0.15625 0  0.25 0.15625 0  0.28125 0.15625 0  0.3125 0.15625 0  0.34375 0.15625 0  0.375 0.15625 0  0.40625 0.15625 0  0.4375 0.15625 0  0.46875 0.15625 0  0.5 0.15625 0  0.53125 0.15625 0  0.5625 0.15625 0  0.59375 0.15625 0  0.625 0.15625 0  0.65625 0.15625 0  0.6875 0.15625 0  0.71875 0.15625 0  0.75 0.15625 0  0.78125 0.15625 0  0.8125 0.15625 0  0.84375 0.15625 0  0.875 0.15625 0  0.90625 0.15625 0  0.9375 0.15625 0  0.96875 0.15625 0  1 0.15625 0  0 0.1875 0  0.03125 0.1875 0  0.0625 0.1875 0  0.09375 0.1875 0  0.125 0.1875 0  0.15625 0.1875 0  0.1875 0.1875 0  0.21875 0.1875 0  0.25 0.1875 0  0.28125 0.1875 0  0.3125 0.1875 0  0.34375 0.1875 0  0.375 0.1875 0  0.40625 0.1875 0  0.4375 0.1875 0  0.46875 0.1875 0  0.5 0.1875 0  0.53125 0.1875 0  0.5625 0.1875 0  0.59375 0.1875 0  0.625 0.1875 0  0.65625 0.1875 0  0.6875 0.1875 0  0.71875 0.1875 0  0.75 0.1875 0  0.78125 0.1875 0  0.8125 0.1875 0  0.84375 0.1875 0  0.875 0.1875 0  0.90625 0.1875 0  0.9375 0.1875 0  0.96875 0.1875 0  1 0.1875 0  0 0.21875 0  0.03125 0.21875 0  0.0625 0.21875 0  0.09375 0.21875 0  0.125 0.21875 0  0.15625 0.21875 0  0.1875 0.21875 0  0.21875 0.21875 0  0.25 0.21875 0  0.28125 0.21875 0  0.3125 0.21875 0  0.34375 0.21875 0  0.375 0.21875 0  0.40625 0.21875 0  0.4375 0.21875 0  0.46875 0.21875 0  0.5 0.21875 0  0.53125 0.21875 0  0.5625 0.21875 0  0.59375 0.21875 0  0.625 0.21875 0  0.65625 0.21875 0  0.6875 0.21875 0  0.71875 0.21875 0  0.75 0.21875 0  0.78125 0.21875 0  0.8125 0.21875 0  0.84375 0.21875 0  0.875 0.21875 0  0.90625 0.21875 0  0.9375 0.21875 0  0.96875 0.21875 0  1 0.21875 0  0 0.25 0  0.03125 0.25 0  0.0625 0.25 0  0.09375 0.25 0  0.125 0.25 0  0.15625 0.25 0  0.1875 0.25 0  0.21875 0.25 0  0.25 0.25 0  0.28125 0.25 0  0.3125 0.25 0  0.34375 0.25 0  0.375 0.25 0  0.40625 0.25 0  0.4375 0.25 0  0.46875 0.25 0  0.5 0.25 0  0.53125 0.25 0  0.5625 0.25 0  0.59375 0.25 0  0.625 0.25 0  0.65625 0.25 0  0.6875 0.25 0  0.71875 0.25 0  0.75 0.25 0  0.78125 0.25 0  0.8125 0.25 0  0.84375 0.25 0  0.875 0.25 0  0.90625 0.25 0  0.9375 0.25 0  0.96875 0.25 0  1 0.25 0  0 0.28125 0  0.03125 0.28125 0  0.0625 0.28125 0  0.09375 0.28125 0  0.125 0.28125 0  0.15625 0.28125 0  0.1875 0.28125 0  0.21875 0.28125 0  0.25 0.28125 0  0.28125 0.28125 0  0.3125 0.28125 0  0.34375 0.28125 0  0.375 0.28125 0  0.40625 0.28125 0  0.4375 0.28125 0  0.46875 0.28125 0  0.5 0.28125 0  0.53125 0.28125 0  0.5625 0.28125 0  0.59375 0.28125 0  0.625 0.28125 0  0.65625 0.28125 0  0.6875 0.28125 0  0.71875 0.28125 0  0.75 0.28125 0  0.78125 0.28125 0  0.8125 0.28125 0  0.84375 0.28125 0  0.875 0.28125 0  0.90625 0.28125 0  0.9375 0.28125 0  0.96875 0.28125 0  1 0.28125 0  0 0.3125 0  0.03125 0.3125 0  0.0625 0.3125 0  0.09375 0.3125 0  0.125 0.3125 0  0.15625 0.3125 0  0.1875 0.3125 0  0.21875 0.3125 0  0.25 0.3125 0  0.28125 0.3125 0  0.3125 0.3125 0  0.34375 0.3125 0  0.375 0.3125 0  0.40625 0.3125 0  0.4375 0.3125 0  0.46875 0.3125 0  0.5 0.3125 0  0.53125 0.3125 0  0.5625 0.3125 0  0.59375 0.3125 0  0.625 0.3125 0  0.65625 0.3125 0  0.6875 0.3125 0  0.71875 0.3125 0  0.75 0.3125 0  0.78125 0.3125 0  0.8125 0.3125 0  0.84375 0.3125 0  0.875 0.3125 0  0.90625 0.3125 0  0.9375 0.3125 0  0.96875 0.3125 0  1 0.3125 0  0 0.34375 0  0.03125 0.34375 0  0.0625 0.34375 0  0.09375 0.34375 0  0.125 0.34375 0  0.15625 0.34375 0  0.1875 0.34375 0  0.21875 0.34375 0  0.25 0.34375 0  0.28125 0.34375 0  0.3125 0.34375 0  0.34375 0.34375 0  0.375 0.34375 0  0.40625 0.34375 0  0.4375 0.34375 0  0.46875 0.34375 0  0.5 0.34375 0  0.53125 0.34375 0  0.5625 0.34375 0  0.59375 0.34375 0  0.625 0.34375 0  0.65625 0.34375 0  0.6875 0.34375 0  0.71875 0.34375 0  0.75 0.34375 0  0.78125 0.34375 0  0.8125 0.34375 0  0.84375 0.34375 0  0.875 0.34375 0  0.90625 0.34375 0  0.9375 0.34375 0  0.96875 0.34375 0  1 0.34375 0  0 0.375 0  0.03125 0.375 0  0.0625 0.375 0  0.09375 0.375 0  0.125 0.375 0  0.15625 0.375 0  0.1875 0.375 0  0.21875 0.375 0  0.25 0.375 0  0.28125 0.375 0  0.3125 0.375 0  0.34375 0.375 0  0.375 0.375 0  0.40625 0.375 0  0.4375 0.375 0  0.46875 0.375 0  0.5 0.375 0  0.53125 0.375 0  0.5625 0.375 0  0.59375 0.375 0  0.625 0.375 0  0.65625 0.375 0  0.6875 0.375 0  0.71875 0.375 0  0.75 0.375 0  0.78125 0.375 0  0.8125 0.375 0  0.84375 0.375 0  0.875 0.375 0  0.90625 0.375 0  0.9375 0.375 0  0.96875 0.375 0  1 0.375 0  0 0.40625 0  0.03125 0.40625 0  0.0625 0.40625 0  0.09375 0.40625 0  0.125 0.40625 0  0.15625 0.40625 0  0.1875 0.40625 0  0.21875 0.40625 0  0.25 0.40625 0  0.28125 0.40625 0  0.3125 0.40625 0  0.34375 0.40625 0  0.375 0.40625 0  0.40625 0.40625 0  0.4375 0.40625 0  0.46875 0.40625 0  0.5 0.40625 0  0.53125 0.40625 0  0.5625 0.40625 0  0.59375 0.40625 0  0.625 0.40625 0  0.65625 0.40625 0  0.6875 0.40625 0  0.71875 0.40625 0  0.75 0.40625 0  0.78125 0.40625 0  0.8125 0.40625 0  0.84375 0.40625 0  0.875 0.40625 0  0.90625 0.40625 0  0.9375 0.40625 0  0.96875 0.40625 0  1 0.40625 0  0 0.4375 0  0.03125 0.4375 0  0.0625 0.4375 0  0.09375 0.4375 0  0.125 0.4375 0  0.15625 0.4375 0  0.1875 0.4375 0  0.21875 0.4375 0  0.25 0.4375 0  0.28125 0.4375 0  0.3125 0.4375 0  0.34375 0.4375 0  0.375 0.4375 0  0.40625 0.4375 0  0.4375 0.4375 0  0.46875 0.4375 0  0.5 0.4375 0  0.53125 0.4375 0  0.5625 0.4375 0  0.59375 0.4375 0  0.625 0.4375 0  0.65625 0.4375 0  0.6875 0.4375 0  0.71875 0.4375 0  0.75 0.4375 0  0.78125 0.4375 0  0.8125 0.4375 0  0.84375 0.4375 0  0.875 0.4375 0  0.90625 0.4375 0  0.9375 0.4375 0  0.96875 0.4375 0  1 0.4375 0  0 0.46875 0  0.03125 0.46875 0  0.0625 0.46875 0  0.09375 0.46875 0  0.125 0.46875 0  0.15625 0.46875 0  0.1875 0.46875 0  0.21875 0.46875 0  0.25 0.46875 0  0.28125 0.46875 0  0.3125 0.46875 0  0.34375 0.46875 0  0.375 0.46875 0  0.40625 0.46875 0  0.4375 0.46875 0  0.46875 0.46875 0  0.5 0.46875 0  0.53125 0.46875 0  0.5625 0.46875 0  0.59375 0.46875 0  0.625 0.46875 0  0.65625 0.46875 0  0.6875 0.46875 0  0.71875 0.46875 0  0.75 0.46875 0  0.78125 0.46875 0  0.8125 0.46875 0  0.84375 0.46875 0  0.875 0.46875 0  0.90625 0.46875 0  0.9375 0.46875 0  0.96875 0.46875 0  1 0.46875 0  0 0.5 0  0.03125 0.5 0  0.0625 0.5 0  0.09375 0.5 0  0.125 0.5 0  0.15625 0.5 0  0.1875 0.5 0  0.21875 0.5 0  0.25 0.5 0  0.28125 0.5 0  0.3125 0.5 0  0.34375 0.5 0  0.375 0.5 0  0.40625 0.5 0  0.4375 0.5 0  0.46875 0.5 0  0.5 0.5 0  0.53125 0.5 0  0.5625 0.5 0  0.59375 0.5 0  0.625 0.5 0  0.65625 0.5 0  0.6875 0.5 0  0.71875 0.5 0  0.75 0.5 0  0.78125 0.5 0  0.8125 0.5 0  0.84375 0.5 0  0.875 0.5 0  0.90625 0.5 0  0.9375 0.5 0  0.96875 0.5 0  1 0.5 0  0 0.53125 0  0.03125 0.53125 0  0.0625 0.53125 0  0.09375 0.53125 0  0.125 0.53125 0  0.15625 0.53125 0  0.1875 0.53125 0  0.21875 0.53125 0  0.25 0.53125 0  0.28125 0.53125 0  0.3125 0.53125 0  0.34375 0.53125 0  0.375 0.53125 0  0.40625 0.53125 0  0.4375 0.53125 0  0.46875 0.53125 0  0.5 0.53125 0  0.53125 0.53125 0  0.5625 0.53125 0  0.59375 0.53125 0  0.625 0.53125 0  0.65625 0.53125 0  0.6875 0.53125 0  0.71875 0.53125 0  0.75 0.53125 0  0.78125 0.531
[...]
<PointData  Scalars="u_sol"> 
<DataArray  type="Float64"  Name="u_sol"  format="ascii">-1.5328916702878227e-07  7.6763063014500591e-07  3.3921834918367905e-06  7.5214567796546547e-06  1.2955737685679608e-05  1.9484352875919384e-05  2.6889778812530254e-05  3.4948170569914141e-05  4.3431115727103469e-05  5.2107347304863872e-05  6.0744781978607660e-05  6.9112811703192221e-05  7.6984897737077378e-05  8.4141484744527185e-05  9.0373263680293607e-05  9.5484811186618185e-05  9.9298635984832625e-05  1.0165966453291440e-04  1.0244020028090199e-04  1.0154539343152815e-04  9.8919259814860143e-05  9.4551291295206187e-05  8.8483700548042387e-05  8.0819349402926527e-05  7.1730408953166638e-05  6.1467800502555775e-05  5.0371509929780519e-05  3.8881664268733961e-05  2.7551138384471404e-05  1.7057022830087209e-05  8.2214092197334639e-06  2.0025898119901812e-06  -3.9762927919685901e-07  -9.1868368502052703e-06  4.6005160019206067e-05  2.0329832207776832e-04  4.5077145185291428e-04  7.7645552789046019e-04  1.1677245896489789e-03  1.6115421360286086e-03  2.0944928396357857e-03  2.6028876170126358e-03  3.1228663226320419e-03  3.6405198767712321e-03  4.1420276206329387e-03  4.6138127706983906e-03  5.0427170698013404e-03  5.4161963338821692e-03  5.7225385672651299e-03  5.9511064687582955e-03  6.0926062619027230e-03  6.1393849131100619e-03  6.0857579352403962e-03  5.9283701195141031e-03  5.6665916829832632e-03  5.3029525028436206e-03  4.8436171930469913e-03  4.2989042656283137e-03  3.6838516795835723e-03  3.0188354452215902e-03  2.3302327248342328e-03  1.6511784637333238e-03  1.0222512841857698e-03  4.9272021819547144e-04  1.2001804946139753e-04  -2.3830447583409162e-05  -1.6467016150898110e-05  8.2462301250952580e-05  3.6440363647427326e-04  8.0798874588545132e-04  1.3917636654930394e-03  2.0930968954539701e-03  2.8886210588994574e-03  3.7542897498473574e-03  4.6655658658460320e-03  5.5976056832656648e-03  6.5254777658282090e-03  7.4244091679914592e-03  8.2700640801572078e-03  9.0388568833831701e-03  9.7083026586788496e-03  1.0257408149470355e-02  1.0667106443548026e-02  1.0920738839918648e-02  1.1004587599677491e-02  1.0908463519976685e-02  1.0626352530625001e-02  1.0157125771576113e-02  9.5053179397713780e-03  8.6819788435236363e-03  7.7056039786346257e-03  6.6031482484049126e-03  5.4111347915117352e-03  4.1768435508371159e-03  2.9596675222330585e-03  1.8323421578309183e-03  8.8318012005314148e-04  2.1512726915138433e-04  -4.2715067133881177e-05  -2.2115053950627024e-05  1.1074612578109683e-04  4.8939079274172635e-04  1.0851215889301508e-03  1.8691260340149903e-03  2.8110102279699949e-03  3.8793919946811168e-03  5.0419772282609991e-03  6.2658128221230579e-03  7.5175338802283935e-03  8.7636577092247443e-03  9.9709144672351993e-03  1.1106621381842291e-02  1.2139103179737532e-02  1.3038162817603730e-02  1.3775606541243032e-02  1.4325827659561963e-02  1.4666453687405710e-02  1.4779061825105768e-02  1.4649968064911634e-02  1.4271095564253405e-02  1.3640928273377135e-02  1.2765556248086684e-02  1.1659819279961504e-02  1.0348556651610351e-02  8.8679685544940101e-03  7.2671052337833246e-03  5.6094632275649793e-03  3.9748067937127552e-03  2.4608189904423796e-03  1.1861029314724789e-03  2.8891397944274605e-04  -5.7365949476404262e-05  -2.6246374694247264e-05  1.3143464717628830e-04  5.8081405332709776e-04  1.2878335226028921e-03  2.2182981051186552e-03  3.3361360058504230e-03  4.6041025336873266e-03  5.9838707100492794e-03  7.4363314477186235e-03  8.9218869435869121e-03  1.0400799591469740e-02  1.1833584399403239e-02  1.3181453115364833e-02  1.4406813197515184e-02  1.5473826482508495e-02  1.6349032331138592e-02  1.7002040457370114e-02  1.7406298964133978e-02  1.7539943481788309e-02  1.7386733687703659e-02  1.6937083900545016e-02  1.6189194855424298e-02  1.5150294291961974e-02  1.3837994226759690e-02  1.2281774176116252e-02  1.0524596901280632e-02  8.6246757409355855e-03  6.6573690448778009e-03  4.7173418614375479e-03  2.9205254577590444e-03  1.4076792392879809e-03  3.4288610176319453e-04  -6.8082502709569843e-05  -2.8977957587848833e-05  1.4511366526631571e-04  6.4126208682827881e-04  1.4218643771907965e-03  2.4491667578523035e-03  3.6833432732266296e-03  5.0832730030921534e-03  6.6066401012737233e-03  8.2102652155086678e-03  9.8504294148564556e-03  1.1483259415418270e-02  1.3065160838229083e-02  1.4553308557135054e-02  1.5906197599138288e-02  1.7084259955890781e-02  1.8050552582994428e-02  1.8771522334958844e-02  1.9217853934032865e-02  1.9365407482431079e-02  1.9196252449863432e-02  1.8699805526614200e-02  1.7874080187943099e-02  1.6727056396180374e-02  1.5278179131215236e-02  1.3559995979474351e-02  1.1619941037686267e-02  9.5222861799335885e-03  7.3502326541301354e-03  5.2082977455269698e-03  3.2244782339549108e-03  1.5541830170784142e-03  3.7857186591229176e-04  -7.5168167938821089e-05  -3.0426365249379640e-05  1.5236689368258220e-04  6.7331434298531999e-04  1.4929335420874254e-03  2.5715836617835174e-03  3.8674481221274634e-03  5.3373506524529652e-03  6.9368603303356291e-03  8.6206395668751139e-03  1.0342784224945842e-02  1.2057228099623113e-02  1.3718197831533224e-02  1.5280727763710377e-02  1.6701238377504240e-02  1.7938183934079758e-02  1.8952774861916988e-02  1.9709780925471574e-02  2.0178421578038643e-02  2.0333350333726720e-02  2.0155740436957621e-02  1.9634479589129013e-02  1.8767481970391124e-02  1.7563126404012395e-02  1.6041829788449771e-02  1.4237766538323215e-02  1.2200741653481371e-02  9.9982395161872326e-03  7.7176200321362820e-03  5.4686245858505695e-03  3.3856476343165519e-03  1.6318658934930952e-03  3.9749405920960816e-04  -7.8925305553579313e-05  -3.0708271921055962e-05  1.5377860502679920e-04  6.7955274169240545e-04  1.5067658838321747e-03  2.5954099210513519e-03  3.9032808335862034e-03  5.3868023134005290e-03  7.0011317764014265e-03  8.7005115719352311e-03  1.0438612252300666e-02  1.2168940800732572e-02  1.3845299759516301e-02  1.5422306856942410e-02  1.6855978802332354e-02  1.8104384927834550e-02  1.9128376268762706e-02  1.9892396173604370e-02  2.0365378906109722e-02  2.0521743137736644e-02  2.0342487676317397e-02  1.9816397262469213e-02  1.8941366747975672e-02  1.7725852585505072e-02  1.6190460839248223e-02  1.4369682557070586e-02  1.2313784193994322e-02  1.0090875391610793e-02  7.7891254665745048e-03  5.5192925833706611e-03  3.4170163946548784e-03  1.6469854844072425e-03  4.0117692759501577e-04  -7.9656565550165385e-05  -2.9940321917435191e-05  1.4993292204211879e-04  6.6255854068069883e-04  1.4690848009017547e-03  2.5305041112350475e-03  3.8056678861476114e-03  5.2520895701779037e-03  6.8260479990740466e-03  8.4829298263573803e-03  1.0177564208419348e-02  1.1864620823565555e-02  1.3499057518192232e-02  1.5036626938758024e-02  1.6434445727026716e-02  1.7651631815306372e-02  1.8650015273680709e-02  1.9394928648106075e-02  1.9856083090251105e-02  2.0008537004886834e-02  1.9833764377003869e-02  1.9320830414269637e-02  1.8467682611051580e-02  1.7282565939908168e-02  1.5785571149740732e-02  1.4010326739919959e-02  1.2005842108052667e-02  9.8385236179500280e-03  7.5943356579808892e-03  5.3812665635864509e-03  3.3315639233798696e-03  1.6057978023749013e-03  3.9114432655284087e-04  -7.7664520410132773e-05  -2.8239167548422499e-05  1.4141400749902836e-04  6.2491317464217556e-04  1.3856140842465963e-03  2.3867254841128129e-03  3.5894367755151448e-03  4.9536754110540409e-03  6.4382043830854977e-03  8.0009451943549616e-03  9.5992935269879828e-03  1.1190494646844346e-02  1.2732065615169501e-02  1.4182273134443618e-02  1.5500670402650336e-02  1.6648698198153684e-02  1.7590355337493008e-02  1.8292944107634258e-02  1.8727896615644796e-02  1.8871688399509288e-02  1.8706846055312042e-02  1.8223056082477315e-02  1.7418382592571818e-02  1.6300602092730914e-02  1.4888663812592609e-02  1.3214285543389517e-02  1.1323692060992142e-02  9.2795166437868188e-03  7.1628393430606908e-03  5.0755127954558235e-03  3.1422705230538402e-03  1.5145592911626875e-03  3.6892021672185158e-04  -7.3251763481963571e-05  -2.5721458952701632e-05  1.2880601330037876e-04  5.6919803027498015e-04  1.2620774184652120e-03  2.1739331083516955e-03  3.2694147221239817e-03  4.5120224445695063e-03  5.8641958198658922e-03  7.2876079274060250e-03  8.7434529069471065e-03  1.0192787893245566e-02  1.1596917584671776e-02  1.2917829485706290e-02  1.4118682896715961e-02  1.5164356407671590e-02  1.6022058579750385e-02  1.6662006917071471e-02  1.7058180541787069e-02  1.7189152350716937e-02  1.7039006806462399e-02  1.6598349922490669e-02  1.5865418405874149e-02  1.4847295436440954e-02  1.3561240796032039e-02  1.2036144427591784e-02  1.0314109865603199e-02  8.4521862200196106e-03  6.5242247206442590e-03  4.6229971672067625e-03  2.8621162607309382e-03  1.3795262811436184e-03  3.3602853112320953e-04  -6.6720882635840634e-05  -2.2503846823116872e-05  1.1269309412120919e-04  4.9799450654284063e-04  1.1041985153552216e-03  1.9019860994671689e-03  2.8604290168643951e-03  3.9475933765212162e-03  5.1306173273252837e-03  6.3759684343354783e-03  7.6496952363115447e-03  8.9177264063166513e-03  1.0146207212871230e-02  1.1301880315775881e-02  1.2352513585560838e-02  1.3267379108263049e-02  1.4017787473662991e-02  1.4577681811106838e-02  1.4924296309092965e-02  1.5038884274049775e-02  1.4907521111501464e-02  1.4521987968417052e-02  1.3880742129092041e-02  1.2989980707504999e-02  1.1864804384749622e-02  1.0530489135319928e-02  9.0238715781941446e-03  7.3948642978884267e-03  5.7080801445596584e-03  4.0446856769731504e-03  2.5040812714629706e-03  1.2069551353894258e-03  2.9399321073805075e-04  -5.8374467317805892e-05  -1.8702981681072842e-05  9.3659403780607236e-05  4.1388399861118846e-04  9.1770107825419819e-04  1.5807435583290483e-03  2.3773069285035900e-03  3.2808508820774910e-03  4.2640638835077897e-03  5.2990770744520124e-03  6.3576733438504857e-03  7.4115359608944598e-03  8.4325282083658731e-03  9.3930098623751148e-03  1.0266192753318401e-02  1.1026538866937365e-02  1.1650204391583298e-02  1.2115533421984246e-02  1.2403605255895187e-02  1.2498839485254435e-02  1.2389663355783889e-02  1.2069246164380914e-02  1.1536305757417490e-02  1.0795992567496799e-02  9.8608567972730508e-03  8.7519053522946855e-03  7.4997532072016201e-03  6.1458827898687365e-03  4.7439939387489884e-03  3.3615443015007252e-03  2.0811456767931332e-03  1.0031022102927679e-03  2.4433819486537436e-04  -4.8515106641145159e-05  -1.4435514080116668e-05  7.2289096258962388e-05  3.1944790233012213e-04  7.0830881195249628e-04  1.2200645882001087e-03  1.8348757292582208e-03  2.5322576409993586e-03  3.2911304722738947e-03  4.0899842142003732e-03  4.9070400669153245e-03  5.7204423420102856e-03  6.5084742917731362e-03  7.2498023773241880e-03  7.9237507005784670e-03  8.5106082698030612e-03  8.9919717278556296e-03  9.3511264070024764e-03  9.5734687486746326e-03  9.6469733311611312e-03  9.5627079582883030e-03  9.3154004900142962e-03  8.9040613225176667e-03  8.3326657142945154e-03  7.6109002869731946e-03  6.7549787962991725e-03  5.7885307891236042e-03  4.7435736315460907e-03  3.6615544447720274e-03  2.5945390296470477e-03  1.6062896054177525e-03  7.7422386548127041e-04  1.8858742353939885e-04  -3.7445389863595750e-05  -9.8180945626974482e-06  4.9166325483431524e-05  2.1726761327905137e-04  4.8174542057391381e-04  8.2980829108667486e-04  1.2479626893059791e-03  1.7222763300534516e-03  2.2384120734011055e-03  2.7817402147777347e-03  3.3374482364421768e-03  3.8906713271944279e-03  4.4266391752970568e-03  4.9308421033827758e-03  5.3892177185711106e-03  5.7883598937170403e-03  6.1157518681157295e-03  6.3600254157111669e-03  6.5112481474762680e-03  6.5612411537226299e-03  6.5039293347761810e-03  6.3357269233356587e-03  6.0559608558385372e-03  5.6673348466070427e-03  5.1764371086841024e-03  4.5942951867698392e-03  3.9369803619149117e-03  3.2262687594902485e-03  2.4903500045980929e-03  1.7646358501835775e-03  1.0924931856821547e-03  5.2657646024834091e-04  1.2826483666608215e-04  -2.5467906217726333e-05  -4.9673736840553967e-06  2.4875245446689657e-05  1.0992452729536479e-04  2.4373460876236418e-04  4.1983376981397471e-04  6.3139507994804339e-04  8.7136962741378964e-04  1.1325036683152256e-03  1.4073954392136653e-03  1.6885506853230653e-03  1.9684486960041309e-03  2.2396165732069657e-03  2.4947132854075483e-03  2.7266241006740303e-03  2.9285663177725939e-03  3.0942072003624951e-03  3.2177951001704378e-03  3.2943048149890711e-03  3.3195982975975208e-03  3.2906019036575682e-03  3.2055014448006736e-03  3.0639563908788185e-03  2.8673346646664274e-03  2.6189695181442268e-03  2.3244402434179599e-03  1.9918779632492425e-03  1.6323001095902134e-03  1.2599689593157358e-03  8.9280075101311500e-04  5.5273654524763509e-04  2.6641635348900256e-04  6.4894374038653626e-05  -1.2885244912863837e-05  -2.0166363876132217e-12  1.0229938267806575e-11  4.0582606674434070e-11  8.1945875964861002e-11  1.2852546566837272e-10  1.7441975546467713e-10  2.1383960671455093e-10  2.4165792844737796e-10  2.5430356347128239e-10  2.5063086321494250e-10  2.3241297640083284e-10  2.0421275923548626e-10  1.7249268316592191e-10  1.4406491311204645e-10  1.2418934562659279e-10  1.1481596286667671e-10  1.1352504342403833e-10  1.1362855116190096e-10  1.0562835090106853e-10  7.9853058523032488e-11  2.9658260981661737e-11  -4.5684913665341049e-11  -1.3946412200007560e-10  -2.3798243434686572e-10  -3.2343206715287882e-10  -3.7822158353479801e-10  -3.9026960341800171e-10  -3.5644743770100639e-10  -2.8460097830935284e-10  -1.9104962489824196e-10  -9.7208511815678956e-11  -2.4852220653698497e-11  4.9021692873638451e-12  4.9673698432631088e-06  -2.4875225964559860e-05  -1.0992445013718133e-04  -2.4373445330488149e-04  -4.1983352666184905e-04  -6.3139475107214661e-04  -8.7136922583906466e-04  -1.1325032167444405e-03  -1.4073949669424965e-03  -1.6885502235014808e-03  -1.9684482719745221e-03  -2.2396162051219869e-03  -2.4947129785958598e-03  -2.7266238470289904e-03  -2.9285660988463374e-03  -3.0942069938854786e-03  -3.2177948886531016e-03  -3.2943045941549870e-03  -3.3195980820168937e-03  -3.2906017272822099e-03  -3.2055013552805688e-03  -3.0639564382238310e-03  -2.8673348868473009e-03  -2.6189699274336300e-03  -2.3244408181302871e-03  -1.9918786477096527e-03  -1.6323008242539144e-03  -1.2599696175695705e-03  -8.9280128002730834e-04  -5.5273690228036312e-04  -2.6641653599515950e-04  -6.4894420897595672e-05  1.2885254154391551e-05  9.8180912738343631e-06  -4.9166308804874876e-05  -2.1726754758223438e-04  -4.8174528917588197e-04  -8.2980808746789883e-04  -1.2479624170436323e-03  -1.7222760022766212e-03  -2.2384117112855084e-03  -2.7817398445563134e-03  -3.3374478850060878e-03  -3.8906710169504988e-03  -4.4266389193594047e-03  -4.9308419024133706e-03  -5.3892175604124837e-03  -5.7883597564304832e-03  -6.1157517261820234e-03  -6.3600252481888940e-03  -6.5112479460893461e-03  -6.5612409284856637e-03  -6.5039291150357616e-03  -6.3357267531345849e-03  -6.0559607840003768e-03  -5.6673349137599882e-03  -5.1764373345479170e-03  -4.5942955618579933e-03  -3.9369808462507696e-03  -3.2262692902203160e-03  -2.4903505096722065e-03  -1.7646362660920854e-03  -1.0924934718784512e-03  -5.2657660894676103e-04  -1.2826487540681315e-04  2.5467913854304565e-05  1.4435511629887585e-05  -7.2289083840916887e-05  -3.1944785396269336e-04  -7.0830871673057414e-04  -1.2200644436704080e-03  -1.8348755410826523e-03  -2.5322574221124479e-03  -3.2911302412410937e-03  -4.0899839924325521e-03  -4.9070398748409091e-03  -5.7204421947673785e-03  -6.5084741953034177e-03  -7.2498023259397974e-03  -7.9237506769356276e-03  -8.5106082477859248e-03  -8.9919716781819946e-03  -9.3511263045655390e-03  -9.5734685799501017e-03  -9.6469730996757899e-03  -9.5627076863239371e-03  -9.3154002155194770e-03  -8.9040610913873053e-03  -8.3326655696646049e-03  -7.6109002581261267e-03  -6.7549788905329287e-03  -5.7885309888055262e-03  -4.7435738981393060e-03  -3.6615547279410729e-03  -2.5945392803097523e-03  -1.6062897872312714e-03  -7.7422396390766516e-04  -1.8858745008440894e-04  3.7445395090931791e-05  1.8702980247521922e-05  -9.3659396528520040e-05  -4.1388397109102626e-04  -9.1770102617270001e-04  -1.5807434835919934e-03  -2.3773068386295170e-03  -3.2808507890966002e-03  -4.2640638022659674e-03  -5.2990770201837827e-03  -6.3576733291503115e-03  -7.4115359925098680e-03  -8.4325282844455243e-03  -9.3930099709292995e-03  -1.0266192872550775e-02  -1.1026538967810976e-02  -1.1650204442491490e-02  -1.2115533394832734e-02  -1.2403605132384437e-02  -1.2498839261880508e-02  -1.2389663046143579e-02  -1.2069245797875241e-02  -1.1536305374256650e-02  -1.0795992210963407e-02  -9.8608565049313115e-03  -8.7519051484879155e-03  -7.4997530985462125e-03  -6.1458827653409894e-03  -4.7439939735476454e-03  -3.3615443645133446e-03  -2.0811457383664426e-03  -1.0031022499523840e-03  -2.4433820692318240e-04  4.8515109009644538e-05  2.2503846456198337e-05  -1.1269309229010012e-04  -4.9799450065737263e-04  -1.1041985074789267e-03  -1.9019860952328251e-03  -2.8604290247376488e-03  -3.9475934065774628e-03  -5.1306173896604242e-03  -6.3759685371835633e-03  -7.6496953840166039e-03  -8.9177265974225532e-03  -1.0146207438678386e-02  -1.1301880559762894e-02  -1.2352513824015046e-02  -1.3267379312313957e-02  -1.4017787612653893e-02  -1.4577681856938437e-02  -1.4924296240871535e-02  -1.5038884082173633e-02  -1.4907520800287559e-02  -1.4521987556561426e-02  -1.3880741647635938e-02  -1.2989980195544381e-02  -1.1864803883586246e-02  -1.0530488682257033e-02  -9.0238712010706056e-03  -7.3948640116251376e-03  -5.7080799499542225e-03  -4.0446855624319293e-03  -2.5040812166520448e-03  -1.2069551168809867e-03  -2.9399320811658109e-04  5.8374466794069612e-05  2.5721459574169427e-05  -1.2880601649382253e-04  -5.6919804413622498e-04  -1.2620774502071829e-03  -2.1739331659711880e-03  -3.2694148136647823e-03  -4.5120225769735055e-03  -5.8641959976927730e-03  -7.2876081516789499e-03  -8.7434531742702076e-03  -1.0192788195291316e-02  -1.1596917908089069e-02  -1.2917829812472572e-02  -1.4118683204949011e-02  -1.5164356672907626e-02  -1.6022058776688570e-02  -1.6662007021755174e-02  -1.7058180534128956e-02  -1.7189152217176130e-02  -1.7039006542559205e-02  -1.6598349534732673e-02  -1.5865417912612818e-02  -1.4847294867221352e-02  -1.3561240189171221e-02  -1.2036143826021277e-02  -1.0314109311384330e-02  -8.4521857483515501e-03  -6.5242243544929883e-03  -4.6229969138576223e-03  -2.8621161113405267e-03  -1.3795262136586934e-03  -3.3602851570586570e-04  6.6720879596135591e-05  2.8239168970399313e-05  -1.4141401476270294e-04  -6.2491320414982188e-04  -1.3856141465165325e-03  -2.3867255877679039e-03  -3.5894369267000818e-03  -4.9536756125632365e-03  -6.4382046335852089e-03  -8.0009454880900291e-03  -9.5992938541056422e-03  -1.1190494994263393e-02  -1.2732065967762513e-02  -1.4182273476202248e-02  -1.5500670717530113e-02  -1.6648698470425431e-02  -1.7590355551649815e-02  -1.8292944248144663e-02  -1.8727896667012241e-02  -1.8871688347115625e-02  -1.8706845887340392e-02  -1.8223055792834279e-02  -1.7418382184268857e-02  -1.6300601580744353e-02  -1.4888663225084683e-02  -1.3214284920232459e-02  -1.1323691449306013e-02  -9.2795160907501468e-03  -7.1628388877433427e-03  -5.0755124612933897e-03  -3.1422703137416025e-03  -1.5145591904659754e-03  -3.6892019209768602e-04  7.3251758637424901e-05  2.9940323876200213e-05  -1.4993293203492182e-04  -6.6255858029627766e-04  -1.4690848818959027e-03  -2.5305042411607292e-03  -3.8056680680436817e-03  -5.2520898021290452e-03  -6.8260482740683248e-03  -8.4829301329038490e-03  -1.0177564532025419e-02  -1.1864621148844937e-02  -1.3499057831128579e-02  -1.5036627228490708e-02  -1.6434445986585621e-02  -1.7651632040961762e-02  -1.8650015462996886e-02  -1.9394928797256225e-02  -1.9856083191530184e-02  -2.0008537045498629e-02  -1.9833764339989981e-02  -1.9320830281870364e-02  -1.8467682370012752e-02  -1.7282565587377237e-02  -1.5785570697975142e-02  -1.4010326217835213e-02  -1.2005841558663756e