<?xml version="1.0"?>
<VTKFile type="UnstructuredGrid"  version="0.1"  >
<UnstructuredGrid>
<Piece  NumberOfPoints="1089" NumberOfCells="1024">
<Points>
<DataArray  type="Float64"  NumberOfComponents="3"  format="ascii">0 0 0  0.03125 0 0  0.0625 0 0  0.09375 0 0  0.125 0 0  0.15625 0 0  0.1875 0 0  0.21875 0 0  0.25 0 0  0.28125 0 0  0.3125 0 0  0.34375 0 0  0.375 0 0  0.40625 0 0  0.4375 0 0  0.46875 0 0  0.5 0 0  0.53125 0 0  0.5625 0 0  0.59375 0 0  0.625 0 0  0.65625 0 0  0.6875 0 0  0.71875 0 0  0.75 0 0  0.78125 0 0  0.8125 0 0  0.84375 0 0  0.875 0 0  0.90625 0 0  0.9375 0 0  0.96875 0 0  1 0 0  0 0.03125 0  0.03125 0.03125 0  0.0625 0.03125 0  0.09375 0.03125 0  0.125 0.03125 0  0.15625 0.03125 0  0.1875 0.03125 0  0.21875 0.03125 0  0.25 0.03125 0  0.28125 0.03125 0  0.3125 0.03125 0  0.34375 0.03125 0  0.375 0.03125 0  0.40625 0.03125 0  0.4375 0.03125 0  0.46875 0.03125 0  0.5 0.03125 0  0.53125 0.03125 0  0.5625 0.03125 0  0.59375 0.03125 0  0.625 0.03125 0  0.65625 0.03125 0  0.6875 0.03125 0  0.71875 0.03125 0  0.75 0.03125 0  0.78125 0.03125 0  0.8125 0.03125 0  0.84375 0.03125 0  0.875 0.03125 0  0.90625 0.03125 0  0.9375 0.03125 0  0.96875 0.03125 0  1 0.03125 0  0 0.0625 0  0.03125 0.0625 0  0.0625 0.0625 0  0.09375 0.0625 0  0.125 0.0625 0  0.15625 0.0625 0  0.1875 0.0625 0  0.21875 0.0625 0  0.25 0.0625 0  0.28125 0.0625 0  0.3125 0.0625 0  0.34375 0.0625 0  0.375 0.0625 0  0.40625 0.0625 0  0.4375 0.0625 0  0.46875 0.0625 0  0.5 0.0625 0  0.53125 0.0625 0  0.5625 0.0625 0  0.59375 0.0625 0  0.625 0.0625 0  0.65625 0.0625 0  0.6875 0.0625 0  0.71875 0.0625 0  0.75 0.0625 0  0.78125 0.0625 0  0.8125 0.0625 0  0.84375 0.0625 0  0.875 0.0625 0  0.90625 0.0625 0  0.9375 0.0625 0  0.96875 0.0625 0  1 0.0625 0  0 0.09375 0  0.03125 0.09375 0  0.0625 0.09375 0  0.09375 0.09375 0  0.125 0.09375 0  0.15625 0.09375 0  0.1875 0.09375 0  0.21875 0.09375 0  0.25 0.09375 0  0.28125 0.09375 0  0.3125 0.09375 0  0.34375 0.09375 0  0.375 0.09375 0  0.40625 0.09375 0  0.4375 0.09375 0  0.46875 0.09375 0  0.5 0.09375 0  0.53125 0.09375 0  0.5625 0.09375 0  0.59375 0.09375 0  0.625 0.09375 0  0.65625 0.09375 0  0.6875 0.09375 0  0.71875 0.09375 0  0.75 0.09375 0  0.78125 0.09375 0  0.8125 0.09375 0  0.84375 0.09375 0  0.875 0.09375 0  0.90625 0.09375 0  0.9375 0.09375 0  0.96875 0.09375 0  1 0.09375 0  0 0.125 0  0.03125 0.125 0  0.0625 0.125 0  0.09375 0.125 0  0.125 0.125 0  0.15625 0.125 0  0.1875 0.125 0  0.21875 0.125 0  0.25 0.125 0  0.28125 0.125 0  0.3125 0.125 0  0.34375 0.125 0  0.375 0.125 0  0.40625 0.125 0  0.4375 0.125 0  0.46875 0.125 0  0.5 0.125 0  0.53125 0.125 0  0.5625 0.125 0  0.59375 0.125 0  0.625 0.125 0  0.65625 0.125 0  0.6875 0.125 0  0.71875 0.125 0  0.75 0.125 0  0.78125 0.125 0  0.8125 0.125 0  0.84375 0.125 0  0.875 0.125 0  0.90625 0.125 0  0.9375 0.125 0  0.96875 0.125 0  1 0.125 0  0 0.15625 0  0.03125 0.15625 0  0.0625 0.15625 0  0.09375 0.15625 0  0.125 0.15625 0  0.15625 0.15625 0  0.1875 0.15625 0  0.21875 0.15625 0  0.25 0.15625 0  0.28125 0.15625 0  0.3125 0.15625 0  0.34375 0.15625 0  0.375 0.15625 0  0.40625 0.15625 0  0.4375 0.15625 0  0.46875 0.15625 0  0.5 0.15625 0  0.53125 0.15625 0  0.5625 0.15625 0  0.59375 0.15625 0  0.625 0.15625 0  0.65625 0.15625 0  0.6875 0.15625 0  0.71875 0.15625 0  0.75 0.15625 0  0.78125 0.15625 0  0.8125 0.15625 0  0.84375 0.15625 0  0.875 0.15625 0  0.90625 0.15625 0  0.9375 0.15625 0  0.96875 0.15625 0  1 0.15625 0  0 0.1875 0  0.03125 0.1875 0  0.0625 0.1875 0  0.09375 0.1875 0  0.125 0.1875 0  0.15625 0.1875 0  0.1875 0.1875 0  0.21875 0.1875 0  0.25 0.1875 0  0.28125 0.1875 0  0.3125 0.1875 0  0.34375 0.1875 0  0.375 0.1875 0  0.40625 0.1875 0  0.4375 0.1875 0  0.46875 0.1875 0  0.5 0.1875 0  0.53125 0.1875 0  0.5625 0.1875 0  0.59375 0.1875 0  0.625 0.1875 0  0.65625 0.1875 0  0.6875 0.1875 0  0.71875 0.1875 0  0.75 0.1875 0  0.78125 0.1875 0  0.8125 0.1875 0  0.84375 0.1875 0  0.875 0.1875 0  0.90625 0.1875 0  0.9375 0.1875 0  0.96875 0.1875 0  1 0.1875 0  0 0.21875 0  0.03125 0.21875 0  0.0625 0.21875 0  0.09375 0.21875 0  0.125 0.21875 0  0.15625 0.21875 0  0.1875 0.21875 0  0.21875 0.21875 0  0.25 0.21875 0  0.28125 0.21875 0  0.3125 0.21875 0  0.34375 0.21875 0  0.375 0.21875 0  0.40625 0.21875 0  0.4375 0.21875 0  0.46875 0.21875 0  0.5 0.21875 0  0.53125 0.21875 0  0.5625 0.21875 0  0.59375 0.21875 0  0.625 0.21875 0  0.65625 0.21875 0  0.6875 0.21875 0  0.71875 0.21875 0  0.75 0.21875 0  0.78125 0.21875 0  0.8125 0.21875 0  0.84375 0.21875 0  0.875 0.21875 0  0.90625 0.21875 0  0.9375 0.21875 0  0.96875 0.21875 0  1 0.21875 0  0 0.25 0  0.03125 0.25 0  0.0625 0.25 0  0.09375 0.25 0  0.125 0.25 0  0.15625 0.25 0  0.1875 0.25 0  0.21875 0.25 0  0.25 0.25 0  0.28125 0.25 0  0.3125 0.25 0  0.34375 0.25 0  0.375 0.25 0  0.40625 0.25 0  0.4375 0.25 0  0.46875 0.25 0  0.5 0.25 0  0.53125 0.25 0  0.5625 0.25 0  0.59375 0.25 0  0.625 0.25 0  0.65625 0.25 0  0.6875 0.25 0  0.71875 0.25 0  0.75 0.25 0  0.78125 0.25 0  0.8125 0.25 0  0.84375 0.25 0  0.875 0.25 0  0.90625 0.25 0  0.9375 0.25 0  0.96875 0.25 0  1 0.25 0  0 0.28125 0  0.03125 0.28125 0  0.0625 0.28125 0  0.09375 0.28125 0  0.125 0.28125 0  0.15625 0.28125 0  0.1875 0.28125 0  0.21875 0.28125 0  0.25 0.28125 0  0.28125 0.28125 0  0.3125 0.28125 0  0.34375 0.28125 0  0.375 0.28125 0  0.40625 0.28125 0  0.4375 0.28125 0  0.46875 0.28125 0  0.5 0.28125 0  0.53125 0.28125 0  0.5625 0.28125 0  0.59375 0.28125 0  0.625 0.28125 0  0.65625 0.28125 0  0.6875 0.28125 0  0.71875 0.28125 0  0.75 0.28125 0  0.78125 0.28125 0  0.8125 0.28125 0  0.84375 0.28125 0  0.875 0.28125 0  0.90625 0.28125 0  0.9375 0.28125 0  0.96875 0.28125 0  1 0.28125 0  0 0.3125 0  0.03125 0.3125 0  0.0625 0.3125 0  0.09375 0.3125 0  0.125 0.3125 0  0.15625 0.3125 0  0.1875 0.3125 0  0.21875 0.3125 0  0.25 0.3125 0  0.28125 0.3125 0  0.3125 0.3125 0  0.34375 0.3125 0  0.375 0.3125 0  0.40625 0.3125 0  0.4375 0.3125 0  0.46875 0.3125 0  0.5 0.3125 0  0.53125 0.3125 0  0.5625 0.3125 0  0.59375 0.3125 0  0.625 0.3125 0  0.65625 0.3125 0  0.6875 0.3125 0  0.71875 0.3125 0  0.75 0.3125 0  0.78125 0.3125 0  0.8125 0.3125 0  0.84375 0.3125 0  0.875 0.3125 0  0.90625 0.3125 0  0.9375 0.3125 0  0.96875 0.3125 0  1 0.3125 0  0 0.34375 0  0.03125 0.34375 0  0.0625 0.34375 0  0.09375 0.34375 0  0.125 0.34375 0  0.15625 0.34375 0  0.1875 0.34375 0  0.21875 0.34375 0  0.25 0.34375 0  0.28125 0.34375 0  0.3125 0.34375 0  0.34375 0.34375 0  0.375 0.34375 0  0.40625 0.34375 0  0.4375 0.34375 0  0.46875 0.34375 0  0.5 0.34375 0  0.53125 0.34375 0  0.5625 0.34375 0  0.59375 0.34375 0  0.625 0.34375 0  0.65625 0.34375 0  0.6875 0.34375 0  0.71875 0.34375 0  0.75 0.34375 0  0.78125 0.34375 0  0.8125 0.34375 0  0.84375 0.34375 0  0.875 0.34375 0  0.90625 0.34375 0  0.9375 0.34375 0  0.96875 0.34375 0  1 0.34375 0  0 0.375 0  0.03125 0.375 0  0.0625 0.375 0  0.09375 0.375 0  0.125 0.375 0  0.15625 0.375 0  0.1875 0.375 0  0.21875 0.375 0  0.25 0.375 0  0.28125 0.375 0  0.3125 0.375 0  0.34375 0.375 0  0.375 0.375 0  0.40625 0.375 0  0.4375 0.375 0  0.46875 0.375 0  0.5 0.375 0  0.53125 0.375 0  0.5625 0.375 0  0.59375 0.375 0  0.625 0.375 0  0.65625 0.375 0  0.6875 0.375 0  0.71875 0.375 0  0.75 0.375 0  0.78125 0.375 0  0.8125 0.375 0  0.84375 0.375 0  0.875 0.375 0  0.90625 0.375 0  0.9375 0.375 0  0.96875 0.375 0  1 0.375 0  0 0.40625 0  0.03125 0.40625 0  0.0625 0.40625 0  0.09375 0.40625 0  0.125 0.40625 0  0.15625 0.40625 0  0.1875 0.40625 0  0.21875 0.40625 0  0.25 0.40625 0  0.28125 0.40625 0  0.3125 0.40625 0  0.34375 0.40625 0  0.375 0.40625 0  0.40625 0.40625 0  0.4375 0.40625 0  0.46875 0.40625 0  0.5 0.40625 0  0.53125 0.40625 0  0.5625 0.40625 0  0.59375 0.40625 0  0.625 0.40625 0  0.65625 0.40625 0  0.6875 0.40625 0  0.71875 0.40625 0  0.75 0.40625 0  0.78125 0.40625 0  0.8125 0.40625 0  0.84375 0.40625 0  0.875 0.40625 0  0.90625 0.40625 0  0.9375 0.40625 0  0.96875 0.40625 0  1 0.40625 0  0 0.4375 0  0.03125 0.4375 0  0.0625 0.4375 0  0.09375 0.4375 0  0.125 0.4375 0  0.15625 0.4375 0  0.1875 0.4375 0  0.21875 0.4375 0  0.25 0.4375 0  0.28125 0.4375 0  0.3125 0.4375 0  0.34375 0.4375 0  0.375 0.4375 0  0.40625 0.4375 0  0.4375 0.4375 0  0.46875 0.4375 0  0.5 0.4375 0  0.53125 0.4375 0  0.5625 0.4375 0  0.59375 0.4375 0  0.625 0.4375 0  0.65625 0.4375 0  0.6875 0.4375 0  0.71875 0.4375 0  0.75 0.4375 0  0.78125 0.4375 0  0.8125 0.4375 0  0.84375 0.4375 0  0.875 0.4375 0  0.90625 0.4375 0  0.9375 0.4375 0  0.96875 0.4375 0  1 0.4375 0  0 0.46875 0  0.03125 0.46875 0  0.0625 0.46875 0  0.09375 0.46875 0  0.125 0.46875 0  0.15625 0.46875 0  0.1875 0.46875 0  0.21875 0.46875 0  0.25 0.46875 0  0.28125 0.46875 0  0.3125 0.46875 0  0.34375 0.46875 0  0.375 0.46875 0  0.40625 0.46875 0  0.4375 0.46875 0  0.46875 0.46875 0  0.5 0.46875 0  0.53125 0.46875 0  0.5625 0.46875 0  0.59375 0.46875 0  0.625 0.46875 0  0.65625 0.46875 0  0.6875 0.46875 0  0.71875 0.46875 0  0.75 0.46875 0  0.78125 0.46875 0  0.8125 0.46875 0  0.84375 0.46875 0  0.875 0.46875 0  0.90625 0.46875 0  0.9375 0.46875 0  0.96875 0.46875 0  1 0.46875 0  0 0.5 0  0.03125 0.5 0  0.0625 0.5 0  0.09375 0.5 0  0.125 0.5 0  0.15625 0.5 0  0.1875 0.5 0  0.21875 0.5 0  0.25 0.5 0  0.28125 0.5 0  0.3125 0.5 0  0.34375 0.5 0  0.375 0.5 0  0.40625 0.5 0  0.4375 0.5 0  0.46875 0.5 0  0.5 0.5 0  0.53125 0.5 0  0.5625 0.5 0  0.59375 0.5 0  0.625 0.5 0  0.65625 0.5 0  0.6875 0.5 0  0.71875 0.5 0  0.75 0.5 0  0.78125 0.5 0  0.8125 0.5 0  0.84375 0.5 0  0.875 0.5 0  0.90625 0.5 0  0.9375 0.5 0  0.96875 0.5 0  1 0.5 0  0 0.53125 0  0.03125 0.53125 0  0.0625 0.53125 0  0.09375 0.53125 0  0.125 0.53125 0  0.15625 0.53125 0  0.1875 0.53125 0  0.21875 0.53125 0  0.25 0.53125 0  0.28125 0.53125 0  0.3125 0.53125 0  0.34375 0.53125 0  0.375 0.53125 0  0.40625 0.53125 0  0.4375 0.53125 0  0.46875 0.53125 0  0.5 0.53125 0  0.53125 0.53125 0  0.5625 0.53125 0  0.59375 0.53125 0  0.625 0.53125 0  0.65625 0.53125 0  0.6875 0.53125 0  0.71875 0.53125 0  0.75 0.53125 0  0.78125 0.531
[...]
<PointData  Scalars="v_sol"> 
<DataArray  type="Float64"  Name="v_sol"  format="ascii">7.7107420883255337e-08  9.3430281724311409e-06  1.7643311379529759e-05  2.4924025407757120e-05  3.1138585152376964e-05  3.6245032167602460e-05  4.0207961493068855e-05  4.2999315069793510e-05  4.4599597601711752e-05  4.4999106721358829e-05  4.4199295658194882e-05  4.2214246237641252e-05  3.9072268199645768e-05  3.4817631198554709e-05  2.9512439076497035e-05  2.3238655797516047e-05  1.6100293206735020e-05  8.2257713060950447e-06  -2.2953759449658141e-07  -9.0805688708922237e-06  -1.8109616970161496e-05  -2.7063164861420957e-05  -3.5648477038838581e-05  -4.3529941972610525e-05  -5.0325145013102678e-05  -5.5600666079003418e-05  -5.8867543634923804e-05  -5.9576537511669661e-05  -5.7112606628753948e-05  -5.0790687714363741e-05  -3.9844881193977840e-05  -2.3440429470141876e-05  -5.9862600849132790e-07  -3.8712977417274641e-07  -4.6908072176658976e-05  -8.8580887382544503e-05  -1.2513480294297773e-04  -1.5633593077556184e-04  -1.8197361314437844e-04  -2.0187009339750245e-04  -2.1588450228667027e-04  -2.2391896050042733e-04  -2.2592475597411630e-04  -2.2190918478529699e-04  -2.1194294687726058e-04  -1.9616817551479395e-04  -1.7480713313634830e-04  -1.4817162137663881e-04  -1.1667315260338300e-04  -8.0833933863897254e-05  -4.1298717035774265e-05  1.1524279352436424e-06  4.5590356327630395e-05  9.0922044867839473e-05  1.3587467316788029e-04  1.7897851905396210e-04  2.1854859402308733e-04  2.5266492910762931e-04  2.7915147187617453e-04  2.9555332153093875e-04  2.9911292845069619e-04  2.8674239947885401e-04  2.5500225105064923e-04  2.0004719557698393e-04  1.1768619017966463e-04  3.0054885370052170e-06  -1.6487936361492527e-06  -1.9978271158065423e-04  -3.7726832567042210e-04  -5.3295241001592296e-04  -6.6583883357817218e-04  -7.7503039425649747e-04  -8.5977002578323974e-04  -9.1945776043560385e-04  -9.5367672883663523e-04  -9.6221946452195546e-04  -9.4511704191809019e-04  -9.0267057374282750e-04  -8.3548540928426768e-04  -7.4450816999605646e-04  -6.3106682719398844e-04  -4.9691402281326256e-04  -3.4427385037025542e-04  -1.7589232496165438e-04  4.9082150824310645e-06  1.9417051826636815e-04  3.8723936976162323e-04  5.7869379473897929e-04  7.6227420709818936e-04  9.3080419830016798e-04  1.0761065662044727e-03  1.1889134533862424e-03  1.2587693574138052e-03  1.2739298315926190e-03  1.2212434006713276e-03  1.0860613167635439e-03  8.5200625303638925e-04  5.0122855204761329e-04  1.2800467720858743e-05  -3.5363574714992126e-06  -4.2849709114502188e-04  -8.0917101864329505e-04  -1.1430846819817659e-03  -1.4281015662176990e-03  -1.6622973359492080e-03  -1.8440482253450161e-03  -1.9720674138195213e-03  -2.0454607938690311e-03  -2.0637833880551995e-03  -2.0271018452601968e-03  -1.9360619965703553e-03  -1.7919622044505873e-03  -1.5968327972795309e-03  -1.3535220286699967e-03  -1.0657889925036871e-03  -7.3840395943057383e-04  -3.7725662565499734e-04  1.0527205616379084e-05  4.1645995959399182e-04  8.3055705888930229e-04  1.2411915121014537e-03  1.6349376609848610e-03  1.9964034322085258e-03  2.3080502334105074e-03  2.5500002195360232e-03  2.6998282605331988e-03  2.7323446907646632e-03  2.6193420013351999e-03  2.3294013658670906e-03  1.8273963704560782e-03  1.0750428430923924e-03  2.7454647257060227e-05  -5.8986568791039520e-06  -7.1473475103388663e-04  -1.3497002868391517e-03  -1.9066695260756029e-03  -2.3820787551600445e-03  -2.7727181743417190e-03  -3.0758793373368001e-03  -3.2894158225860344e-03  -3.4118362558360465e-03  -3.4423984130065913e-03  -3.3812134645837613e-03  -3.2293586589655686e-03  -2.9889996693240207e-03  -2.6635230907497516e-03  -2.2576798207893799e-03  -1.7777400420590627e-03  -1.2316605838517199e-03  -6.2926548141410503e-04  1.7559399039425817e-05  6.9465675140352305e-04  1.3853722637392389e-03  2.0703120714550753e-03  2.7270821265480425e-03  3.3300083931946602e-03  3.8498364325066530e-03  4.2534099244517535e-03  4.5033236643864712e-03  4.5575611996003318e-03  4.3690722882132717e-03  3.8854502304461426e-03  3.0481039982968960e-03  1.7931754828853755e-03  4.5794456119954166e-05  -8.5934480397032898e-06  -1.0412601346397063e-03  -1.9663086212954109e-03  -2.7777283319339687e-03  -3.4703274771572807e-03  -4.0394298650314039e-03  -4.4810897010579918e-03  -4.7921799748353779e-03  -4.9705279806888433e-03  -5.0150524107633737e-03  -4.9259152234965853e-03  -4.7046858061365136e-03  -4.3545192156898933e-03  -3.8803492072458628e-03  -3.2890971177377865e-03  -2.5898976521055218e-03  -1.7943427037157228e-03  -9.1674440174858301e-04  2.5581349759557658e-05  1.0120095035223260e-03  2.0182772535355374e-03  3.0161306809629832e-03  3.9729450543125183e-03  4.8513171967689561e-03  5.6086278262207651e-03  6.1965732115964126e-03  6.5606596393742288e-03  6.6396755110448742e-03  6.3650757526680932e-03  5.6605117618689204e-03  4.4406252742684345e-03  2.6123847322894003e-03  6.6715578566116119e-05  -1.1490473635445976e-05  -1.3922900831596389e-03  -2.6291912110167287e-03  -3.7141569926402497e-03  -4.6402453814873117e-03  -5.4012037461607376e-03  -5.9917560856163976e-03  -6.4077212111978959e-03  -6.6461939545658421e-03  -6.7057284772378736e-03  -6.5865413371419225e-03  -6.2907309936170198e-03  -5.8225161371090756e-03  -5.1884937913279109e-03  -4.3979186160310619e-03  -3.4630048102957836e-03  -2.3992521297247289e-03  -1.2257976123972948e-03  3.4205295335479680e-05  1.3531784245231950e-03  2.6986794850199542e-03  4.0329295883074663e-03  5.3123055427760869e-03  6.4867947997866143e-03  7.4994102491836908e-03  8.2855639886126077e-03  8.7723913628669804e-03  8.8780450996174994e-03  8.5108721820164063e-03  7.5687853504576470e-03  5.9376503206258428e-03  3.4930727229698132e-03  8.9206756934950536e-05  -1.4470641432405216e-05  -1.7533942939348757e-03  -3.3110979693755614e-03  -4.6774603617250601e-03  -5.8437389364321959e-03  -6.8020593804065978e-03  -7.5457773105086622e-03  -8.0696271061477167e-03  -8.3699501155824925e-03  -8.4449255082836520e-03  -8.2948260088404335e-03  -7.9222943326984294e-03  -7.3326433290547529e-03  -6.5341810243926875e-03  -5.5385623652464541e-03  -4.3611694231019769e-03  -3.0215219674179171e-03  -1.5437204152282346e-03  4.3076712942551904e-05  1.7041385782263128e-03  3.3986086621991493e-03  5.0789097478181559e-03  6.6901045361982990e-03  8.1692092275393955e-03  9.4444565379872697e-03  1.0434507050691610e-02  1.1047597937487491e-02  1.1180654024962437e-02  1.0718251175501388e-02  9.5318247941792843e-03  7.4776387319349475e-03  4.3990357209106636e-03  1.1234341315576957e-04  -1.7426244332207711e-05  -2.1115219924777032e-03  -3.9873839013838917e-03  -5.6328234051822024e-03  -7.0373123224815766e-03  -8.1913680259509854e-03  -9.0869890299533785e-03  -9.7178342210966721e-03  -1.0079497675468093e-02  -1.0169786661892166e-02  -9.9890296090036721e-03  -9.5404090023720363e-03  -8.8303228310064232e-03  -7.8687760204234694e-03  -6.6698040182663638e-03  -5.2519306554450508e-03  -3.6386625780978937e-03  -1.8590226690588239e-03  5.1874976434285605e-05  2.0522058081029679e-03  4.0927684360414166e-03  6.1162680798269066e-03  8.0565465922649675e-03  9.8377558406181950e-03  1.1373470196138418e-02  1.2565736805893582e-02  1.3304050442126299e-02  1.3464283007642566e-02  1.2907435185456216e-02  1.1478683293434468e-02  9.0049333223830401e-03  5.2975310434314081e-03  1.3528935829825573e-04  -2.0260901412555624e-05  -2.4549947854867219e-03  -4.6359956075225986e-03  -6.5490921360471781e-03  -8.1820436132327475e-03  -9.5238249113987327e-03  -1.0565132976539635e-02  -1.1298595212984104e-02  -1.1719089004167077e-02  -1.1824064937297755e-02  -1.1613904866079714e-02  -1.1092308958665404e-02  -1.0266715939055039e-02  -9.1487581928899817e-03  -7.7547542560237508e-03  -6.1062411541952218e-03  -4.2305492624923205e-03  -2.1614224967155512e-03  6.0313181470700951e-05  2.3860297917277134e-03  4.7585225519810150e-03  7.1111767689068456e-03  9.3670726128205952e-03  1.1438024036569868e-02  1.3223546897845585e-02  1.4609754743458379e-02  1.5468166901764403e-02  1.5654463856573774e-02  1.5007035830315945e-02  1.3345874599789162e-02  1.0469729647951691e-02  6.1592591297726417e-03  1.5729633447065210e-04  -2.2889573702299311e-05  -2.7735085755837903e-03  -5.2374748995559026e-03  -7.3987787223902179e-03  -9.2435911570959619e-03  -1.0759456664104886e-02  -1.1935865201858423e-02  -1.2764487647111831e-02  -1.3239536770792792e-02  -1.3358132397946592e-02  -1.3120705925723524e-02  -1.2531437587065037e-02  -1.1598731214423367e-02  -1.0335728391286863e-02  -8.7608648367235396e-03  -6.8984718115599857e-03  -4.7794255611395883e-03  -2.4418479715805474e-03  6.8138191800260018e-05  2.6955959009823901e-03  5.3758985605501727e-03  8.0337888095570950e-03  1.0582367149241254e-02  1.2922006170898285e-02  1.4939184802087720e-02  1.6505240829699865e-02  1.7475024353329316e-02  1.7685491680861028e-02  1.6954065601527776e-02  1.5077383427604651e-02  1.1828084174385609e-02  6.9583683463560909e-03  1.7770413771621378e-04  -2.5238559949950151e-05  -3.0581330479323332e-03  -5.7749578311097208e-03  -8.1580601178708554e-03  -1.0192191866410604e-02  -1.1863619318764184e-02  -1.3160753867416108e-02  -1.4074411634795850e-02  -1.4598211493492320e-02  -1.4728977699586851e-02  -1.4467185923032269e-02  -1.3817445384034609e-02  -1.2789022337840492e-02  -1.1396406989496706e-02  -9.6599269759090039e-03  -7.6064104900602841e-03  -5.2699023717507560e-03  -2.6924366677392492e-03  7.5130624501144042e-05  2.9722247010672701e-03  5.9275868205547026e-03  8.8582365178834655e-03  1.1668356443076932e-02  1.4248095165496579e-02  1.6472281788668244e-02  1.8199050455108820e-02  1.9268355614188923e-02  1.9500421619783718e-02  1.8693934729237031e-02  1.6624662666689990e-02  1.3041912090654938e-02  7.6724537004976530e-03  1.9594058508708197e-04  -2.7245497749342961e-05  -3.3013118074987384e-03  -6.2341749568603057e-03  -8.8067784278587549e-03  -1.1002661674827198e-02  -1.2806998849781873e-02  -1.4207279835231686e-02  -1.5193590465025733e-02  -1.5759042194734802e-02  -1.5900206751612179e-02  -1.5617597632391240e-02  -1.4916190578013532e-02  -1.3805988684747219e-02  -1.2302634398892931e-02  -1.0428071782040919e-02  -8.2112623663356272e-03  -5.6889581884771835e-03  -2.9065357837814655e-03  8.1104850347140265e-05  3.2085720810714671e-03  6.3989407627206597e-03  9.5626319274931364e-03  1.2596208949025087e-02  1.5381085148560271e-02  1.7782136199158558e-02  1.9646215253965631e-02  2.0800550150623379e-02  2.1051069722248621e-02  2.0180452025484866e-02  1.7946634132197842e-02  1.4078987897057036e-02  8.2825571862401876e-03  2.1152152349898260e-04  -2.8859363238050874e-05  -3.4968623420484762e-03  -6.6034512626277075e-03  -9.3284408106220854e-03  -1.1654395413791650e-02  -1.3565611027448818e-02  -1.5048836508261798e-02  -1.6093570433836041e-02  -1.6692516224418062e-02  -1.6842042538743753e-02  -1.6542693292571575e-02  -1.5799738962711155e-02  -1.4623775171447280e-02  -1.3031370931811953e-02  -1.1045770141475373e-02  -8.6976498414446084e-03  -6.0259390408823532e-03  -3.0787021132213212e-03  8.5908989839163276e-05  3.3986292151345272e-03  6.7779768155624125e-03  1.0129066680639072e-02  1.3342335193052696e-02  1.6292171282617354e-02  1.8835446639186893e-02  2.0809942886769406e-02  2.2032653848107847e-02  2.2298012714601079e-02  2.1375824661693407e-02  1.9009688366525505e-02  1.4912945249563350e-02  8.7731676926019221e-03  2.2405082733627625e-04  -3.0040471179855244e-05  -3.6399760319559510e-03  -6.8737061838538864e-03  -9.7102195033652913e-03  -1.2131366844999417e-02  -1.4120801455645494e-02  -1.5664729872175476e-02  -1.6752220888965018e-02  -1.7375679306222004e-02  -1.7531325167893005e-02  -1.7219724652926982e-02  -1.6446363941479223e-02  -1.5222272296519655e-02  -1.3564696838896668e-02  -1.1497832750666589e-02  -9.0536125668960778e-03  -6.2725585128271030e-03  -3.2047020553440560e-03  8.9424911172034867e-05  3.5377225698517314e-03  7.0553744226237915e-03  1.0543612055424145e-02  1.3888387809332227e-02  1.6958949810548931e-02  1.9606312032384551e-02  2.1661617100407864e-02  2.2934369075355263e-02  2.3210588065567802e-02  2.2250658230813809e-02  1.9787684694361523e-02  1.5523277002727692e-02  9.1322210286308506e-03  2.3322039907383970e-04  -3.0760474947899799e-05  -3.7272181476100895e-03  -7.0384536006623550e-03  -9.9429518151959786e-03  -1.2422128651545204e-02  -1.4459245561473799e-02  -1.6040178483788758e-02  -1.7153734217432621e-02  -1.7792135524691992e-02  -1.7951511855124454e-02  -1.7632442960622850e-02  -1.6840546515196387e-02  -1.5587116129738798e-02  -1.3889812299411879e-02  -1.1773410108196550e-02  -9.2706074386602090e-03  -6.4228977386698504e-03  -3.2815116137311804e-03  9.1568229321492014e-05  3.6225139009572020e-03  7.2244760368095256e-03  1.0796318957874397e-02  1.4221261530191575e-02  1.7365418043602372e-02  2.0076231606718769e-02  2.2180797713137326e-02  2.3484054668401956e-02  2.3766893970037589e-02  2.2783956731610495e-02  2.0261951208503742e-02  1.5895335198387834e-02  9.3510999166481982e-03  2.3881016907860477e-04  -3.1002366535609223e-05  -3.7565278502843962e-03  -7.0938018394698186e-03  -1.0021140129372328e-02  -1.2519812440696375e-02  -1.4572948598438383e-02  -1.6166313474530333e-02  -1.7288625849163981e-02  -1.7932047328895057e-02  -1.8092676929232922e-02  -1.7771098964031368e-02  -1.6972975285393259e-02  -1.5709688314850652e-02  -1.3999037423597970e-02  -1.1865992516633818e-02  -9.3435085984583718e-03  -6.4734054039075071e-03  -3.3073163961898533e-03  9.2288306878903360e-05  3.6510002549346560e-03  7.2812871227464181e-03  1.0881217924955468e-02  1.4333093189652413e-02  1.7501974365276778e-02  2.0234104898537251e-02  2.2355220618614891e-02  2.3668725934480536e-02  2.3953789352667940e-02  2.2963122571915295e-02  2.0421284772648114e-02  1.6020331067825647e-02  9.4246339935134590e-03  2.4068809564398440e-04  -3.0760476561174865e-05  -3.7272181921879366e-03  -7.0384536730660526e-03  -9.9429519034128153e-03  -1.2422128744025930e-02  -1.4459245646578531e-02  -1.6040178550529010e-02  -1.7153734256978883e-02  -1.7792135532254588e-02  -1.7951511831371086e-02  -1.7632442912114858e-02  -1.6840546453368736e-02  -1.5587116068416914e-02  -1.3889812251247913e-02  -1.1773410080859656e-02  -9.2706074318618156e-03  -6.4228977430847633e-03  -3.2815116125258395e-03  9.1568256315630018e-05  3.6225139711994806e-03  7.2244761586971219e-03  1.0796319126006379e-02  1.4221261724161459e-02  1.7365418231155672e-02  2.0076231751386529e-02  2.2180797783712472e-02  2.3484054649004500e-02  2.3766893864364938e-02  2.2783956565044384e-02  2.0261951018207519e-02  1.5895335029391798e-02  9.3510998093286508e-03  2.3881016496697695e-04  -3.0040474273859952e-05  -3.6399761168207255e-03  -6.8737063212774858e-03  -9.7102196700475027e-03  -1.2131367018616248e-02  -1.4120801613862217e-02  -1.5664729994108045e-02  -1.6752220958074302e-02  -1.7375679313902180e-02  -1.7531325116155343e-02  -1.7219724555184099e-02  -1.6446363820518416e-02  -1.5222272179650559e-02  -1.3564696751009558e-02  -1.1497832706814455e-02  -9.0536125664832726e-03  -6.2725585374651324e-03  -3.2047020717567501e-03  8.9424943101586616e-05  3.5377226853681577e-03  7.0553746397217995e-03  1.0543612365517140e-02  1.3888388174669959e-02  1.6958950170025550e-02  1.9606312316002822e-02  2.1661617247378119e-02  2.2934369053480702e-02  2.3210587879626453e-02  2.2250657927039581e-02  1.9787684341940809e-02  1.5523276686846280e-02  9.1322208266257018e-03  2.3322039115108187e-04  -2.8859367559674943e-05  -3.4968624591994353e-03  -6.6034514513872719e-03  -9.3284410378258343e-03  -1.1654395647834518e-02  -1.3565611237082048e-02  -1.5048836664726884e-02  -1.6093570514917260e-02  -1.6692516219418946e-02  -1.6842042452156866e-02  -1.6542693145053387e-02  -1.5799738788086982e-02  -1.4623775009719430e-02  -1.3031370819213845e-02  -1.1045770099843279e-02  -8.6976498698539961e-03  -6.0259391124771969e-03  -3.0787021792145933e-03  8.5908988819291454e-05  3.3986293323967857e-03  6.7779770806051685e-03  1.0129067085537085e-02  1.3342335688232124e-02  1.6292171784405059e-02  1.8835447049624223e-02  2.0809943118740900e-02  2.2032653852630552e-02  2.2298012493067194e-02  2.1375824273142545e-02  1.9009687902876504e-02  1.4912944827156967e-02  8.7731674192240931e-03  2.2405081619995295e-04  -2.7245502948062430e-05  -3.3013119462948323e-03  -6.2341751789461502e-03  -8.8067786922613554e-03  -1.1002661942760448e-02  -1.2806999083496286e-02  -1.4207280000745438e-02  -1.5193590537029797e-02  -1.5759042162533345e-02  -1.5900206623411548e-02  -1.5617597436275058e-02  -1.4916190358055212e-02  -1.3805988492231025e-02  -1.2302634279915150e-02  -1.0428071764262761e-02  -8.2112624485006121e-03  -5.6889583362993981e-03  -2.9065359346701139e-03  8.1104773445832772e-05  3.2085721491414924e-03  6.3989410185367260e-03  9.5626323682566402e-03  1.2596209520245897e-02  1.5381085752219182e-02  1.7782136716935123e-02  1.9646215577273120e-02  2.0800550213853530e-02  2.1051069518405661e-02  2.0180451616605422e-02  1.7946633621256758e-02  1.4078987419782456e-02  8.2825568719006003e-03  2.1152151002108659e-04  -2.5238565611667062e-05  -3.0581331964801661e-03  -5.7749580667043228e-03  -8.1580603942963802e-03  -1.0192192140236611e-02  -1.1863619548515690e-02  -1.3160754016797204e-02  -1.4074411678099454e-02  -1.4598211422027552e-02  -1.4728977526189541e-02  -1.4467185682850861e-02  -1.3817445129884533e-02  -1.2789022130105460e-02  -1.1396406881987640e-02  -9.6599270007654871e-03  -7.6064106457265704e-03  -5.2699026180765300e-03  -2.6924369310184124e-03  7.5130436154936665e-05  2.9722246746082537e-03  5.9275870127402297e-03  8.8582369349497706e-03  1.1668357032623405e-02  1.4248095824128282e-02  1.6472282386531346e-02  1.8199050868441244e-02  1.9268355762222609e-02  1.9500421483072929e-02  1.8693934363311512e-02  1.6624662173631979e-02  1.3041911612789637e-02  7.6724533780962549e-03  1.9594057036152358e-04  -2.2889579391268900e-05  -2.7735087222274081e-03  -5.2374751296624875e-03  -7.3987789873868250e-03  -9.2435914116601944e-03  -1.0759456865873405e-02  -1.1935865315011411e-02  -1.2764487647931297e-02  -1.3239536654104466e-02  -1.3358132181473381e-02  -1.3120705650527744e-02  -1.2531437312346122e-02  -1.1598731006661691e-02  -1.0335728309194594e-02  -8.7608649151958134e-03  -6.8984720488119078e-03  -4.7794259132551975e-03  -2.4418483574681657e-03  6.8137874532549434e-05  2.6955957517979753e-03  5.3758986490924044e-03  8.0337891534150788e-03  1.0582367703984021e-02  1.2922006836263598e-02  1.4939185445824461e-02  1.6505241320255552e-02  1.7475024597976483e-02  1.7685491645805188e-02  1.6954065328442083e-02  1.5077383007478479e-02  1.1828083744124626e-02  6.9583680464248166e-03  1.7770412295903490e-04  -2.0260906717686873e-05  -2.4549949201723553e-03  -4.6359958162714172e-03  -6.5490923708799945e-03  -8.1820438296489346e-03  -9.5238250687567153e-03  -1.0565133041846794e-02  -1.1298595166273554e-02  -1.1719088844533015e-02  -1.1824064686772133e-02  -1.1613904569639968e-02  -1.1092308678734996e-02  -1.0266715744510668e-02  -9.1487581440018728e-03  -7.7547543884281846e-03  -6.1062414659696779e-03  -4.2305497084702609e-03  -2.1614229930185581e-03  6.0312742063795483e-05  2.3860295159383099e-03  4.7585225191312391e-03  7.1111770080397839e-03  9.3670730913257994e-03  1.1438024664333208e-02  1.3223547548735923e-02  1.4609755286030351e-02  1.5468167236269479e-02  1.5654463935757104e-02  1.5007035678019752e-02  1.3345874288937000e-02  1.0469729300338919e-02  6.1592588762055958e-03  1.5729632087391337e-04  -1.7426248912907903e-05  -2.1115221077954941e-03  -3.9873840776641243e-03  -5.6328235977621682e-03  -7.0373124900987407e-03  -8.1913681318284675e-03  -9.0869890456218017e-03  -9.7178341313119334e-03  -1.0079497483503190e-02  -1.0169786392708730e-02  -9.9890293088071205e-03  -9.5404087331130531e-03  -8.8303226598774685e-03  -7.8687760056659582e-03  -6.6698041941186843e-03  -5.2519310199382494e-03  -3.6386630875021421e-03  -1.8590232417552875e-03  5.1874445978394709e-05  2.