<?xml version="1.0"?>
<VTKFile type="UnstructuredGrid"  version="0.1"  >
<UnstructuredGrid>
<Piece  NumberOfPoints="16641" NumberOfCells="16384">
<Points>
<DataArray  type="Float64"  NumberOfComponents="3"  format="ascii">0 0 0  0.0078125 0 0  0.015625 0 0  0.0234375 0 0  0.03125 0 0  0.0390625 0 0  0.046875 0 0  0.0546875 0 0  0.0625 0 0  0.0703125 0 0  0.078125 0 0  0.0859375 0 0  0.09375 0 0  0.1015625 0 0  0.109375 0 0  0.1171875 0 0  0.125 0 0  0.1328125 0 0  0.140625 0 0  0.1484375 0 0  0.15625 0 0  0.1640625 0 0  0.171875 0 0  0.1796875 0 0  0.1875 0 0  0.1953125 0 0  0.203125 0 0  0.2109375 0 0  0.21875 0 0  0.2265625 0 0  0.234375 0 0  0.2421875 0 0  0.25 0 0  0.2578125 0 0  0.265625 0 0  0.2734375 0 0  0.28125 0 0  0.2890625 0 0  0.296875 0 0  0.3046875 0 0  0.3125 0 0  0.3203125 0 0  0.328125 0 0  0.3359375 0 0  0.34375 0 0  0.3515625 0 0  0.359375 0 0  0.3671875 0 0  0.375 0 0  0.3828125 0 0  0.390625 0 0  0.3984375 0 0  0.40625 0 0  0.4140625 0 0  0.421875 0 0  0.4296875 0 0  0.4375 0 0  0.4453125 0 0  0.453125 0 0  0.4609375 0 0  0.46875 0 0  0.4765625 0 0  0.484375 0 0  0.4921875 0 0  0.5 0 0  0.5078125 0 0  0.515625 0 0  0.5234375 0 0  0.53125 0 0  0.5390625 0 0  0.546875 0 0  0.5546875 0 0  0.5625 0 0  0.5703125 0 0  0.578125 0 0  0.5859375 0 0  0.59375 0 0  0.6015625 0 0  0.609375 0 0  0.6171875 0 0  0.625 0 0  0.6328125 0 0  0.640625 0 0  0.6484375 0 0  0.65625 0 0  0.6640625 0 0  0.671875 0 0  0.6796875 0 0  0.6875 0 0  0.6953125 0 0  0.703125 0 0  0.7109375 0 0  0.71875 0 0  0.7265625 0 0  0.734375 0 0  0.7421875 0 0  0.75 0 0  0.7578125 0 0  0.765625 0 0  0.7734375 0 0  0.78125 0 0  0.7890625 0 0  0.796875 0 0  0.8046875 0 0  0.8125 0 0  0.8203125 0 0  0.828125 0 0  0.8359375 0 0  0.84375 0 0  0.8515625 0 0  0.859375 0 0  0.8671875 0 0  0.875 0 0  0.8828125 0 0  0.890625 0 0  0.8984375 0 0  0.90625 0 0  0.9140625 0 0  0.921875 0 0  0.9296875 0 0  0.9375 0 0  0.9453125 0 0  0.953125 0 0  0.9609375 0 0  0.96875 0 0  0.9765625 0 0  0.984375 0 0  0.9921875 0 0  1 0 0  0 0.0078125 0  0.0078125 0.0078125 0  0.015625 0.0078125 0  0.0234375 0.0078125 0  0.03125 0.0078125 0  0.0390625 0.0078125 0  0.046875 0.0078125 0  0.0546875 0.0078125 0  0.0625 0.0078125 0  0.0703125 0.0078125 0  0.078125 0.0078125 0  0.0859375 0.0078125 0  0.09375 0.0078125 0  0.1015625 0.0078125 0  0.109375 0.0078125 0  0.1171875 0.0078125 0  0.125 0.0078125 0  0.1328125 0.0078125 0  0.140625 0.0078125 0  0.1484375 0.0078125 0  0.15625 0.0078125 0  0.1640625 0.0078125 0  0.171875 0.0078125 0  0.1796875 0.0078125 0  0.1875 0.0078125 0  0.1953125 0.0078125 0  0.203125 0.0078125 0  0.2109375 0.0078125 0  0.21875 0.0078125 0  0.2265625 0.0078125 0  0.234375 0.0078125 0  0.2421875 0.0078125 0  0.25 0.0078125 0  0.2578125 0.0078125 0  0.265625 0.0078125 0  0.2734375 0.0078125 0  0.28125 0.0078125 0  0.2890625 0.0078125 0  0.296875 0.0078125 0  0.3046875 0.0078125 0  0.3125 0.0078125 0  0.3203125 0.0078125 0  0.328125 0.0078125 0  0.3359375 0.0078125 0  0.34375 0.0078125 0  0.3515625 0.0078125 0  0.359375 0.0078125 0  0.3671875 0.0078125 0  0.375 0.0078125 0  0.3828125 0.0078125 0  0.390625 0.0078125 0  0.3984375 0.0078125 0  0.40625 0.0078125 0  0.4140625 0.0078125 0  0.421875 0.0078125 0  0.4296875 0.0078125 0  0.4375 0.0078125 0  0.4453125 0.0078125 0  0.453125 0.0078125 0  0.4609375 0.0078125 0  0.46875 0.0078125 0  0.4765625 0.0078125 0  0.484375 0.0078125 0  0.4921875 0.0078125 0  0.5 0.0078125 0  0.5078125 0.0078125 0  0.515625 0.0078125 0  0.5234375 0.0078125 0  0.53125 0.0078125 0  0.5390625 0.0078125 0  0.546875 0.0078125 0  0.5546875 0.0078125 0  0.5625 0.0078125 0  0.5703125 0.0078125 0  0.578125 0.0078125 0  0.5859375 0.0078125 0  0.59375 0.0078125 0  0.6015625 0.0078125 0  0.609375 0.0078125 0  0.6171875 0.0078125 0  0.625 0.0078125 0  0.6328125 0.0078125 0  0.640625 0.0078125 0  0.6484375 0.0078125 0  0.65625 0.0078125 0  0.6640625 0.0078125 0  0.671875 0.0078125 0  0.6796875 0.0078125 0  0.6875 0.0078125 0  0.6953125 0.0078125 0  0.703125 0.0078125 0  0.7109375 0.0078125 0  0.71875 0.0078125 0  0.7265625 0.0078125 0  0.734375 0.0078125 0  0.7421875 0.0078125 0  0.75 0.0078125 0  0.7578125 0.0078125 0  0.765625 0.0078125 0  0.7734375 0.0078125 0  0.78125 0.0078125 0  0.7890625 0.0078125 0  0.796875 0.0078125 0  0.8046875 0.0078125 0  0.8125 0.0078125 0  0.8203125 0.0078125 0  0.828125 0.0078125 0  0.8359375 0.0078125 0  0.84375 0.0078125 0  0.8515625 0.0078125 0  0.859375 0.0078125 0  0.8671875 0.0078125 0  0.875 0.0078125 0  0.8828125 0.0078125 0  0.890625 0.0078125 0  0.8984375 0.0078125 0  0.90625 0.0078125 0  0.9140625 0.0078125 0  0.921875 0.0078125 0  0.9296875 0.0078125 0  0.9375 0.0078125 0  0.9453125 0.0078125 0  0.953125 0.0078125 0  0.9609375 0.0078125 0  0.96875 0.0078125 0  0.9765625 0.0078125 0  0.984375 0.0078125 0  0.9921875 0.0078125 0  1 0.0078125 0  0 0.015625 0  0.0078125 0.015625 0  0.015625 0.015625 0  0.0234375 0.015625 0  0.03125 0.015625 0  0.0390625 0.015625 0  0.046875 0.015625 0  0.0546875 0.015625 0  0.0625 0.015625 0  0.0703125 0.015625 0  0.078125 0.015625 0  0.0859375 0.015625 0  0.09375 0.015625 0  0.1015625 0.015625 0  0.109375 0.015625 0  0.1171875 0.015625 0  0.125 0.015625 0  0.1328125 0.015625 0  0.140625 0.015625 0  0.1484375 0.015625 0  0.15625 0.015625 0  0.1640625 0.015625 0  0.171875 0.015625 0  0.1796875 0.015625 0  0.1875 0.015625 0  0.1953125 0.015625 0  0.203125 0.015625 0  0.2109375 0.015625 0  0.21875 0.015625 0  0.2265625 0.015625 0  0.234375 0.015625 0  0.2421875 0.015625 0  0.25 0.015625 0  0.2578125 0.015625 0  0.265625 0.015625 0  0.2734375 0.015625 0  0.28125 0.015625 0  0.2890625 0.015625 0  0.296875 0.015625 0  0.3046875 0.015625 0  0.3125 0.015625 0  0.3203125 0.015625 0  0.328125 0.015625 0  0.3359375 0.015625 0  0.34375 0.015625 0  0.3515625 0.015625 0  0.359375 0.015625 0  0.3671875 0.015625 0  0.375 0.015625 0  0.3828125 0.015625 0  0.390625 0.015625 0  0.3984375 0.015625 0  0.40625 0.015625 0  0.4140625 0.015625 0  0.421875 0.015625 0  0.4296875 0.015625 0  0.4375 0.015625 0  0.4453125 0.015625 0  0.453125 0.015625 0  0.4609375 0.015625 0  0.46875 0.015625 0  0.4765625 0.015625 0  0.484375 0.015625 0  0.4921875 0.015625 0  0.5 0.015625 0  0.5078125 0.015625 0  0.515625 0.015625 0  0.5234375 0.015625 0  0.53125 0.015625 0  0.5390625 0.015625 0  0.546875 0.015625 0  0.5546875 0.015625 0  0.5625 0.015625 0  0.5703125 0.015625 0  0.578125 0.015625 0  0.5859375 0.015625 0  0.59375 0.015625 0  0.6015625 0.015625 0  0.609375 0.015625 0  0.6171875 0.015625 0  0.625 0.015625 0  0.6328125 0.015625 0  0.640625 0.015625 0  0.6484375 0.015625 0  0.65625 0.015625 0  0.6640625 0.015625 0  0.671875 0.015625 0  0.6796875 0.015625 0  0.6875 0.015625 0  0.6953125 0.015625 0  0.703125 0.015625 0  0.7109375 0.015625 0  0.71875 0.015625 0  0.7265625 0.015625 0  0.734375 0.015625 0  0.7421875 0.015625 0  0.75 0.015625 0  0.7578125 0.015625 0  0.765625 0.015625 0  0.7734375 0.015625 0  0.78125 0.015625 0  0.7890625 0.015625 0  0.796875 0.015625 0  0.8046875 0.015625 0  0.8125 0.015625 0  0.8203125 0.015625 0  0.828125 0.015625 0  0.8359375 0.015625 0  0.84375 0.015625 0  0.8515625 0.015625 0  0.859375 0.015625 0  0.8671875 0.015625 0  0.875 0.015625 0  0.8828125 0.015625 0  0.890625 0.015625 0  0.8984375 0.015625 0  0.90625 0.015625 0  0.9140625 0.015625 0  0.921875 0.015625 0  0.9296875 0.015625 0  0.9375 0.015625 0  0.9453125 0.015625 0  0.953125 0.015625 0  0.9609375 0.015625 0  0.96875 0.015625 0  0.9765625 0.015625 0  0.984375 0.015625 0  0.9921875 0.015625 0  1 0.015625 0  0 0.0234375 0  0.0078125 0.0234375 0  0.015625 0.0234375 0  0.0234375 0.0234375 0  0.03125 0.0234375 0  0.0390625 0.0234375 0  0.046875 0.0234375 0  0.0546875 0.0234375 0  0.0625 0.0234375 0  0.0703125 0.0234375 0  0.078125 0.0234375 0  0.0859375 0.0234375 0  0.09375 0.0234375 0  0.1015625 0.0234375 0  0.109375 0.0234375 0  0.1171875 0.0234375 0  0.125 0.0234375 0  0.1328125 0.0234375 0  0.140625 0.0234375 0  0.1484375 0.0234375 0  0.15625 0.0234375 0  0.1640625 0.0234375 0  0.171875 0.0234375 0  0.1796875 0.0234375 0  0.1875 0.0234375 0  0.1953125 0.0234375 0  0.203125 0.0234375 0  0.2109375 0.0234375 0  0.21875 0.0234375 0  0.2265625 0.0234375 0  0.234375 0.0234375 0  0.2421875 0.0234375 0  0.25 0.0234375 0  0.2578125 0.0234375 0  0.265625 0.0234375 0  0.2734375 0.0234375 0  0.28125 0.0234375 0  0.2890625 0.0234375 0  0.296875 0.0234375 0  0.3046875 0.0234375 0  0.3125 0.0234375 0  0.3203125 0.0234375 0  0.328125 0.0234375 0  0.3359375 0.0234375 0  0.34375 0.0234375 0  0.3515625 0.0234375 0  0.359375 0.0234375 0  0.3671875 0.0234375 0  0.375 0.0234375 0  0.3828125 0.0234375 0  0.390625 0.0234375 0  0.3984375 0.0234375 0  0.40625 0.0234375 0  0.4140625 0.0234375 0  0.421875 0.0234375 0  0.4296875 0.0234375 0  0.4375 0.0234375 0  0.4453125 0.0234375 0  0.453125 0.0234375 0  0.4609375 0.0234375 0  0.46875 0.0234375 0  0.4765625 0.0234375 0  0.484375 0.0234375 0  0.4921875 0.0234375 0  0.5 0.0234375 0  0.5078125 0.0234375 0  0.515625 0.0234375 0  0.5234375 0.0234375 0  0.53125 0.0234375 0  0.5390625 0.0234375 0  0.546875 0.0234375 0  0.5546875 0.0234375 0  0.5625 0.0234375 0  0.5703125 0.0234375 0  0.578125 0.0234375 0  0.5859375 0.0234375 0  0.59375 0.0234375 0  0.6015625 0.0234375 0  0.609375 0.0234375 0  0.6171875 0.0234375 0  0.625 0.0234375 0  0.6328125 0.0234375 0  0.640625 0.0234375 0  0.6484375 0.0234375 0  0.65625 0.0234375 0  0.6640625 0.0234375 0  0.671875 0.0234375 0  0.6796875 0.0234375 0  0.6875 0.0234375 0  0.6953125 0.0234375 0  0.703125 0.0234375 0  0.7109375 0.0234375 0  0.71875 0.0234375 0  0.7265625 0.0234375 0  0.734375 0.0234375 0  0.7421875 0.0234375 0  0.75 0.0234375 0  0.7578125 0.0234375 0  0.765625 0.0234375 0  0.7734375 0.0234375 0  0.78125 0.0234375 0  0.7890625 0.0234375 0  0.796875 0.0234375 0  0.8046875 0.0234375 0  0.8125 0.0234375 0  0.8203125 0.0234375 0  0.828125 0.0234375 0  0.8359375 0.0234375 0  0.84375 0.0234375 0  0.8515625 0.0234375 0  0.859375 0.0234375 0  0.8671
[...]
<PointData  Scalars="u_sol"> 
<DataArray  type="Float64"  Name="u_sol"  format="ascii">2.0003289429849179e-06  -1.1784858506426308e-05  -2.1946131478487941e-05  -2.0826846974332419e-05  -1.2704552055768423e-05  1.5129753468632069e-07  1.5656145971440119e-05  3.2168365309037646e-05  4.8299925579726659e-05  6.2967665289649524e-05  7.5431418487876029e-05  8.5316731714125916e-05  9.2600666084502117e-05  9.7562814475094003e-05  1.0071361759782021e-04  1.0271304144698951e-04  1.0429162951471664e-04  1.0618114170485691e-04  1.0905807616148031e-04  1.1350049914382712e-04  1.1995794209168819e-04  1.2873483615389773e-04  1.3998901452515910e-04  1.5374675347239026e-04  1.6993393051036216e-04  1.8841932157220688e-04  2.0906223251505193e-04  2.3175434410229248e-04  2.5644634414398698e-04  2.8315373094089431e-04  3.1194188719978959e-04  3.4289591046761798e-04  3.7608372800568426e-04  4.1152078167492430e-04  4.4914160217596313e-04  4.8877960002543196e-04  5.3015323593728805e-04  5.7285553982614759e-04  6.1634467753207797e-04  6.5993497285161745e-04  7.0278945715327042e-04  7.4391592202093437e-04  7.8216856163953650e-04  8.1625696660131419e-04  8.4476362363178077e-04  8.6617057752990789e-04  8.7889531107978279e-04  8.8133531932060394e-04  8.7192024639768816e-04  8.4916990860827454e-04  8.1175594287081717e-04  7.5856465495277743e-04  6.8875830345396501e-04  6.0183236211209916e-04  4.9766638666364426e-04  3.7656670442085216e-04  2.3929954841750705e-04  8.7113767134010223e-05  -7.8247303876473082e-05  -2.5454508519304675e-04  -4.3905612513850975e-04  -6.2859389629908811e-04  -8.1954253180322291e-04  -1.0079032691900133e-03  -1.1893549453972951e-03  -1.3593300975405995e-03  -1.5131082440109889e-03  -1.6459279645388185e-03  -1.7531186917944571e-03  -1.8302521015429005e-03  -1.8733113451233848e-03  -1.8788745812954870e-03  -1.8443064901386330e-03  -1.7679488072459156e-03  -1.6492983982801196e-03  -1.4891588949926292e-03  -1.2897505665057387e-03  -1.0547627137296144e-03  -7.8933454540444008e-04  -4.9995362214049041e-04  -1.9426644021318531e-04  1.1919721923419601e-04  4.3137634166090088e-04  7.3308876276375831e-04  1.0154732292464216e-03  1.2704318451538814e-03  1.4910386328716039e-03  1.6718812621602287e-03  1.8093079548218082e-03  1.9015600860519772e-03  1.9487818022716603e-03  1.9529096692060416e-03  1.9174563502050174e-03  1.8472111901202796e-03  1.7478863522821381e-03  1.6257393119430590e-03  1.4872014430354281e-03  1.3385383677219263e-03  1.1855620907374798e-03  1.0334080710999369e-03  8.8638365940427633e-04  7.4788798440948180e-04  6.2039792152615353e-04  5.0551071251092475e-04  4.0403082285756815e-04  3.1608727566980783e-04  2.4126758344566014e-04  1.7875558086550929e-04  1.2746261504215827e-04  8.6144259598869332e-05  5.3497621302355883e-05  2.8236958364036566e-05  9.1474541677881154e-06  -4.8814197653623556e-06  -1.4840441036261895e-05  -2.1599616033496913e-05  -2.5917159110404888e-05  -2.8452846747979314e-05  -2.9779091963310008e-05  -3.0382336580106459e-05  -3.0647707323252900e-05  -3.0820607740608841e-05  -3.0941730576811810e-05  -3.0751114798874905e-05  -2.9582339959308567e-05  -2.6210864168280176e-05  -1.9146324061055364e-05  -6.8900006467622239e-06  1.6678697799772661e-06  -1.0847371374386819e-06  -3.1374341319625589e-07  9.5701705860357019e-05  3.3132649058601333e-04  6.9311708195174859e-04  1.1538697193084250e-03  1.6798760336008867e-03  2.2367825785744311e-03  2.7924015107422496e-03  3.3190447858069787e-03  3.7951358560724584e-03  4.2061431315720101e-03  4.5447763194058190e-03  4.8105074656370423e-03  5.0085414933619555e-03  5.1484065832099000e-03  5.2423416225831883e-03  5.3036427912708751e-03  5.3451044896494406e-03  5.3776634910424545e-03  5.4093337250805066e-03  5.4445002274111564e-03  5.4836167526204575e-03  5.5233146766552549e-03  5.5568793586982905e-03  5.5749921264836629e-03  5.5665882045441437e-03  5.5196622746384880e-03  5.4218759050447358e-03  5.2608824832523033e-03  5.0243676521195806e-03  4.6998796095210202e-03  4.2745694648394419e-03  3.7349654373371225e-03  3.0668718632583551e-03  2.2554337353260425e-03  1.2853618332186645e-03  1.4128684368318382e-04  -1.1917947660594135e-03  -2.7280128020700117e-03  -4.4800730866117180e-03  -6.4586794162222218e-03  -8.6719432133445223e-03  -1.1124800975994650e-02  -1.3818464358743912e-02  -1.6749930454649262e-02  -1.9911579461024155e-02  -2.3290883672441167e-02  -2.6870246133012494e-02  -3.0626979878716726e-02  -3.4533430188594380e-02  -3.8557233983171145e-02  -4.2661702564554663e-02  -4.6806308134732182e-02  -5.0947250308065913e-02  -5.5038077982087742e-02  -5.9030342525633543e-02  -6.2874261859349884e-02  -6.6519379824124675e-02  -6.9915210826407143e-02  -7.3011866187989355e-02  -7.5760664000513595e-02  -7.8114729251877069e-02  -8.0029594424625025e-02  -8.1463812451830570e-02  -8.2379594067795034e-02  -8.2743479737461115e-02  -8.2527052525051117e-02  -8.1707692879301505e-02  -8.0269369349388470e-02  -7.8203450937943453e-02  -7.5509517408485521e-02  -7.2196134380395016e-02  -6.8281550944774436e-02  -6.3794269182553653e-02  -5.8773429409701941e-02  -5.3268952010356092e-02  -4.7341378533232018e-02  -4.1061361223218310e-02  -3.4508762859611734e-02  -2.7771346403472379e-02  -2.0943057666359618e-02  -1.4121930838327150e-02  -7.4076759161294629e-03  -8.9903486826607975e-04  5.3089823201418682e-03  1.1127853124451338e-02  1.6478152714532644e-02  2.1291884561197634e-02  2.5514410548697648e-02  2.9105883192606281e-02  3.2042113262809514e-02  3.4314840915560883e-02  3.5931413442544899e-02  3.6913904415686039e-02  3.7297735017325917e-02  3.7129877415625241e-02  3.6466732547582571e-02  3.5371781818721727e-02  3.3913115912883866e-02  3.2160945268524206e-02  3.0185196140272683e-02  2.8053292807037528e-02  2.5828218458901289e-02  2.3566933047400349e-02  2.1319204873259241e-02  1.9126885019193105e-02  1.7023622122397421e-02  1.5034983559567262e-02  1.3178921820074475e-02  1.1466505320185968e-02  9.9028231212219108e-03  8.4879736305583826e-03  7.2180580579672589e-03  6.0861192380855175e-03  5.0829937358831496e-03  4.1980770721299849e-03  3.4200331472182413e-03  2.7375019606474963e-03  2.1398652855800530e-03  1.6181102744476227e-03  1.1657801678621028e-03  7.7990997599580053e-04  4.6172321907698375e-04  2.1656997467531461e-04  5.2474628633773637e-05  -2.5431395424041104e-05  -2.4002659091628664e-05  3.8710438213231671e-06  -1.2493942730497865e-05  6.2258287177142715e-05  3.1972358283638967e-04  7.8142787173261015e-04  1.4308802749285520e-03  2.2296064950655999e-03  3.1279313921101651e-03  4.0730383599122174e-03  5.0144367847240034e-03  5.9079454701444212e-03  6.7184422752276114e-03  7.4214385846922103e-03  8.0035173763625383e-03  8.4617345646092121e-03  8.8021605468861126e-03  9.0377897529341101e-03  9.1860677004448194e-03  9.2662796684469060e-03  9.2970243084144928e-03  9.2939682070647504e-03  9.2680476941439278e-03  9.2242486121120737e-03  9.1610453084359448e-03  9.0705102463560106e-03  8.9390176342621745e-03  8.7483734349483346e-03  8.4771355305734136e-03  8.1018678090055991e-03  7.5981147318363819e-03  6.9409811330645946e-03  6.1053265239217631e-03  5.0656937550558204e-03  3.7961537340589022e-03  2.2702468470381719e-03  4.6114893134152428e-04  -1.6578857822185122e-03  -4.1128194212485345e-03  -6.9279176711378940e-03  -1.0124696547577616e-02  -1.3720792173812833e-02  -1.7728810567310221e-02  -2.2155212833631831e-02  -2.6999294192580417e-02  -3.2252318207439436e-02  -3.7896866534270698e-02  -4.3906456499902644e-02  -5.0245464326440469e-02  -5.6869371920902904e-02  -6.3725332605442053e-02  -7.0753028462607809e-02  -7.7885772098717693e-02  -8.5051790495871901e-02  -9.2175620715426329e-02  -9.9179545272029268e-02  -1.0598500116602824e-01  -1.1251390664109316e-01  -1.1868986444906444e-01  -1.2443921615224274e-01  -1.2969193762138026e-01  -1.3438237960383909e-01  -1.3844986834671516e-01  -1.4183918944694049e-01  -1.4450098217905072e-01  -1.4639207317016376e-01  -1.4747577754512911e-01  -1.4772219193005853e-01  -1.4710849927833500e-01  -1.4561929944526891e-01  -1.4324697260570649e-01  -1.3999207553698526e-01  -1.3586376318946536e-01  -1.3088022042239944e-01  -1.2506908139433134e-01  -1.1846780686562074e-01  -1.1112398365516363e-01  -1.0309550519029483e-01  -9.4450589049366027e-02  -8.5267586335443318e-02  -7.5634540288255891e-02  -6.5648457173684699e-02  -5.5414262697992864e-02  -4.5043430626668601e-02  -3.4652287913348408e-02  -2.4360019903312592e-02  -1.4286419714743282e-02  -4.5494451424598322e-03  4.7373372730316670e-03  1.3467330019999547e-02  2.1543407830916940e-02  2.8880251118021519e-02  3.5406421421285340e-02  4.1066102458571639e-02  4.5820444632287426e-02  4.9648465531731342e-02  5.2547472270875493e-02  5.4532982160759837e-02  5.5638126795262886e-02  5.5912532601741220e-02  5.5420681304683611e-02  5.4239769848631332e-02  5.2457113507008477e-02  5.0167168813302444e-02  4.7468291686999287e-02  4.4459384462583025e-02  4.1236615290333234e-02  3.7890405611439811e-02  3.4502869985239305e-02  3.1145856310237880e-02  2.7879677359362157e-02  2.4752556156059726e-02  2.1800739369481167e-02  1.9049176082580308e-02  1.6512622173173071e-02  1.4197017928138378e-02  1.2100998609340071e-02  1.0217431369598103e-02  8.5349200536726927e-03  7.0392709713835468e-03  5.7149531291813948e-03  4.5466002440313130e-03  3.5205739794663920e-03  2.6265331569872525e-03  1.8588144898869813e-03  1.2172638753393209e-03  7.0680268005637859e-04  3.3499385968562446e-04  1.0529126292833173e-04  8.4200555735972588e-06  -2.1465088529753720e-06  -2.3786940000301883e-05  1.1973308736948613e-04  5.3555908137019521e-04  1.2060974765954187e-03  2.0996447375657987e-03  3.1665843285982936e-03  4.3464726738114317e-03  5.5751366278444844e-03  6.7909841396243424e-03  7.9398195311251238e-03  8.9781970920453317e-03  9.8753148479926948e-03  1.0613531678797899e-02  1.1187654846657734e-02  1.1603209202062943e-02  1.1873943040128445e-02  1.2018846355912794e-02  1.2058959956080686e-02  1.2014244665432593e-02  1.1900763040609393e-02  1.1728400085542068e-02  1.1499307175855780e-02  1.1207185206174679e-02  1.0837424270975868e-02  1.0367996247947304e-02  9.7708780345675955e-03  9.0137022080647358e-03  8.0613210058724776e-03  6.8770412591814111e-03  5.4234247462964799e-03  3.6627061141241337e-03  1.5570053391263893e-03  -9.3143580479180198e-04  -3.8397919094424514e-03  -7.2038497592941415e-03  -1.1056844463080646e-02  -1.5427997318977222e-02  -2.0340860225346286e-02  -2.5811585666292162e-02  -3.1847241897095181e-02  -3.8444291692394321e-02  -4.5587351628813090e-02  -5.3248342014590659e-02  -6.1386120441520350e-02  -6.9946661596873558e-02  -7.8863805065873510e-02  -8.8060546141518370e-02  -9.7450798241601452e-02  -1.0694151657598723e-01  -1.1643504521012502e-01  -1.2583153836370223e-01  -1.3503131145198807e-01  -1.4393699575901048e-01  -1.5245540047181694e-01  -1.6049902029972074e-01  -1.6798716261288674e-01  -1.7484670008781814e-01  -1.8101248066274317e-01  -1.8642744491122620e-01  -1.9104251177581941e-01  -1.9481629683152193e-01  -1.9771472602666679e-01  -1.9971060278447555e-01  -2.0078317766036330e-01  -2.0091776202956632e-01  -2.0010541784426369e-01  -1.9834274703566152e-01  -1.9563179574359818e-01  -1.9198008146441772e-01  -1.8740074323997222e-01  -1.8191280779903676e-01  -1.7554155727305826e-01  -1.6831897567466519e-01  -1.6028424320639320e-01  -1.5148423925229301e-01  -1.4197400688971132e-01  -1.3181712546233407e-01  -1.2108593394041132e-01  -1.0986154714922182e-01  -9.8233611553453795e-02  -8.6299756763554142e-02  -7.4164714811361179e-02  -6.1939099412755098e-02  -4.9737861529704455e-02  -3.7678462428535647e-02  -2.5878828367118620e-02  -1.4455168245693645e-02  -3.5197445002993089e-03  6.8213136043301066e-03  1.6470076380685487e-02  2.5338701652965357e-02  3.3351109871024069e-02  4.0444435555436371e-02  4.6570261722292089e-02  5.1695650725694632e-02  5.5803978299423226e-02  5.8895557546976451e-02  6.0988009474960664e-02  6.2116303283551909e-02  6.2332362170190253e-02  6.1704119712083089e-02  6.0313926957861717e-02  5.8256255813039094e-02  5.5634718603845869e-02  5.2558515823583708e-02  4.9138517086952369e-02  4.5483253257592310e-02  4.1695132166431531e-02  3.7867176242137611e-02  3.4080518741779968e-02  3.0402799191567669e-02  2.6887488056495396e-02  2.3574068292844745e-02  2.0488925533492415e-02  1.7646760678100826e-02  1.5052340871924193e-02  1.2702440659358286e-02  1.0587879955676746e-02  8.6956187743818490e-03  7.0108973984058685e-03  5.5193958383759779e-03  4.2093162863362571e-03  3.0731699024575052e-03  2.1088907142991628e-03  1.3197200069396508e-03  7.1228704851816380e-04  2.9208418699392091e-04  5.7566585063879421e-05  -1.1663253623977741e-05  -3.2988856837366260e-05  1.6624315963506857e-04  7.1812182936357104e-04  1.5703951323286531e-03  2.6705766776650790e-03  3.9546618389757803e-03  5.3512532649039194e-03  6.7869289582964563e-03  8.1922654642797316e-03  9.5067147119112013e-03  1.0682020547681330e-02  1.1684031298676113e-02  1.2493002478599214e-02  1.3102580491915946e-02  1.3517721374246177e-02  1.3751824009657127e-02  1.3823364574293692e-02  1.3752318570337027e-02  1.3556655816757201e-02  1.3249190621603294e-02  1.2835054517105416e-02  1.2310017009409089e-02  1.1659796516755703e-02  1.0860375960033315e-02  9.8791824472972255e-03  8.6768470344201019e-03  7.2091780263402313e-03  5.4289977401569267e-03  3.2876124210574351e-03  7.3586991089982995e-04  -2.2750583627065128e-03  -5.7929229934037419e-03  -9.8634158967503063e-03  -1.4528796846886655e-02  -1.9826092955611989e-02  -2.5784958326092264e-02  -3.2425358996464308e-02  -3.9755280941029751e-02  -4.7768663814028778e-02  -5.6443756439071339e-02  -6.5742074652419949e-02  -7.5608111628150357e-02  -8.5969898786794563e-02  -9.6740442688225958e-02  -1.0781997894085456e-01  -1.1909890113570715e-01  -1.3046115468634906e-01  -1.4178784262711208e-01  -1.5296077977272315e-01  -1.6386575236597242e-01  -1.7439528760797771e-01  -1.8445080211701612e-01  -1.9394406916456297e-01  -2.0279801088418070e-01  -2.1094687587631963e-01  -2.1833590170134420e-01  -2.2492058149434674e-01  -2.3066566013472656e-01  -2.3554397825735163e-01  -2.3953526760793745e-01  -2.4262498246054781e-01  -2.4480323172765309e-01  -2.4606385791209473e-01  -2.4640369320366270e-01  -2.4582201007437995e-01  -2.4432017421193253e-01  -2.4190150020473275e-01  -2.3857130534901602e-01  -2.3433715283669546e-01  -2.2920927154814008e-01  -2.2320113572088940e-01  -2.1633018246546584e-01  -2.0861863886961585e-01  -2.0009442316253057e-01  -1.9079207490974970e-01  -1.8075366085549946e-01  -1.7002959343977217e-01  -1.5867929246171522e-01  -1.4677161688107995e-01  -1.3438499530556480e-01  -1.2160719252833675e-01  -1.0853466688459409e-01  -9.5271497861987048e-02  -8.1927896304252942e-02  -6.8618346191436252e-02  -5.5459463472282963e-02  -4.2567688753527635e-02  -3.0056950058651152e-02  -1.8036435264067244e-02  -6.6085979885192906e-03  4.1325136284786042e-03  1.4102564782550240e-02  2.3227894255179276e-02  3.1446195811037150e-02  3.8707029589762985e-02  4.4972289409620822e-02  5.0216740007776615e-02  5.4428695900863293e-02  5.7610844663982946e-02  5.9781132671173430e-02  6.0973546394624378e-02  6.1238556632128335e-02  6.0642966074218325e-02  5.9268926902024822e-02  5.7211979166246915e-02  5.4578093016164349e-02  5.1479854896884766e-02  4.8032086100510608e-02  4.4347287211185346e-02  4.0531339083880992e-02  3.6679851892969018e-02  3.2875450340360990e-02  2.9186142099024266e-02  2.5664771441141408e-02  2.2349441530157988e-02  1.9264716942169639e-02  1.6423398458224631e-02  1.3828686030482994e-02  1.1476591722535552e-02  9.3585046803313001e-03  7.4638189953491361e-03  5.7824983025652780e-03  4.3073740514373866e-03  3.0358814411834854e-03  1.9709016729167052e-03  1.1203953931478567e-03  4.9598441653165995e-04  1.1043691935265601e-04  -2.2030463972593626e-05  -4.0287349496038984e-05  2.0262432373486874e-04  8.6702582222631774e-04  1.8734718360593511e-03  3.1474754702821377e-03  4.6080904919358198e-03  6.1711916699723158e-03  7.7538223677479194e-03  9.2797195861982658e-03  1.0683853655569703e-02  1.1915478417665701e-02  1.2939460164952262e-02  1.3736006493504040e-02  1.4299052434475887e-02  1.4633620289280200e-02  1.4752469197344560e-02  1.4672331855472568e-02  1.4410022383463809e-02  1.3978701089675288e-02  1.3384591996505121e-02  1.2624446748057537e-02  1.1684006758384772e-02  1.0537612936105957e-02  9.1489490579742903e-03  7.4727129283933928e-03  5.4568493317004186e-03  3.0449170333951008e-03  1.7823648028436969e-04  -3.2023430083786349e-03  -7.1549831035705967e-03  -1.1735451952730312e-02  -1.6995475770581601e-02  -2.2980638612914998e-02  -2.9727799451784408e-02  -3.7262175936121585e-02  -4.5594365964088029e-02  -5.4717625402783278e-02  -6.4605713658629216e-02  -7.5211583767447229e-02  -8.6467139584221628e-02  -9.8284203483502766e-02  -1.1055672814293506e-01  -1.2316415359793249e-01  -1.3597567653959328e-01  -1.4885508853848284e-01  -1.6166577529318102e-01  -1.7427546140802044e-01  -1.8656033472329206e-01  -1.9840827813652209e-01  -2.0972105681490502e-01  -2.2041543258382659e-01  -2.3042328529511677e-01  -2.3969090127709883e-01  -2.4817763425619799e-01  -2.5585415775044840e-01  -2.6270051404642863e-01  -2.6870413396503884e-01  -2.7385796152915737e-01  -2.7815877593339783e-01  -2.8160576548190114e-01  -2.8419937782901283e-01  -2.8594044772570043e-01  -2.8682958912803530e-01  -2.8686683046918010e-01  -2.8605146949758020e-01  -2.8438212447904460e-01  -2.8185696236422181e-01  -2.7847408824952580e-01  -2.7423208417741418e-01  -2.6913068864916240e-01  -2.6317160859324462e-01  -2.5635945506529761e-01  -2.4870278917217675e-01  -2.4021525792207482e-01  -2.3091678980554423e-01  -2.2083480642215514e-01  -2.1000539229630771e-01  -1.9847434961401625e-01  -1.8629805146146491e-01  -1.7354399820336514e-01  -1.6029098119457239e-01  -1.4662876693697219e-01  -1.3265723848808933e-01  -1.1848496708198165e-01  -1.0422723587191568e-01  -9.0003595274196546e-02  -7.5935086005518695e-02  -6.2141316280827676e-02  -4.8737609850708748e-02  -3.5832446260436315e-02  -2.3525386681273266e-02  -1.1905619708592514e-02  -1.0511774164262769e-03  8.9712260395909231e-03  1.8105875843741119e-02  2.6307476387965056e-02  3.3540568869878294e-02  3.9779201920830579e-02  4.5007056532268636e-02  4.9218127247058478e-02  5.2417928927401138e-02  5.4625053249792298e-02  5.5872768730302516e-02  5.6210271931913913e-02  5.5703181831739827e-02  5.4432938358187938e-02  5.2494915827780826e-02  4.9995267343496123e-02  4.7046734111059828e-02  4.3763834739056456e-02  4.0257951912549196e-02  3.6632836755868224e-02  3.2980960370037955e-02  2.9380987382956376e-02  2.5896469869684798e-02  2.2575703729948649e-02  1.9452582915750416e-02  1.6548240021140942e-02  1.3873265111153211e-02  1.1430323529432591e-02  9.2170186862615133e-03  7.2288459527122470e-03  5.4620634127900882e-03  3.9162736497829658e-03  2.5965854936355883e-03  1.5151934077359409e-03  6.9317053847273396e-04  1.6113127298470820e-04  -3.2003449668704485e-05  -4.6250584828580995e-05  2.3232302718807540e-04  9.9098545896532820e-04  2.1281912659669661e-03  3.5479152177568568e-03  5.1506768677881971e-03  6.8378325613385037e-03  8.5159080080309882e-03  1.0101893666295901e-02  1.1527326442445850e-02  1.2740666889511892e-02  1.3707768462207335e-02  1.4410656970011388e-02  1.4844988649730759e-02  1.5016594850437812e-02  1.4937481446187072e-02  1.4621596751556568e-02  1.4080649110791880e-02  1.3320257286610276e-02  1.2336738337197993e-02  1.1114843461478697e-02  9.6267004269912342e-03  7.8320847756492371e-03  5.6799311946813553e-03  3.1107688977788004e-03  5.9610689005618198e-05  -3.5411752266215528e-03  -7.7593090496174627e-03  -1.2660378260538365e-02  -1.8305715006840983e-02  -2.4750027100572048e-02  -3.2038526500481966e-02  -4.0203533688583877e-02  -4.9260799975853552e-02  -5.9205974452147363e-02  -7.0011703799549754e-02  -8.1625811475744686e-02  -9.3970901564316145e-02  -1.0694559902122036e-01  -1.2042747542461037e-01  -1.3427752069780272e-01  -1.4