<?xml version="1.0"?>
<VTKFile type="UnstructuredGrid"  version="0.1"  >
<UnstructuredGrid>
<Piece  NumberOfPoints="1089" NumberOfCells="1024">
<Points>
<DataArray  type="Float64"  NumberOfComponents="3"  format="ascii">0 0 0  0.03125 0 0  0.0625 0 0  0.09375 0 0  0.125 0 0  0.15625 0 0  0.1875 0 0  0.21875 0 0  0.25 0 0  0.28125 0 0  0.3125 0 0  0.34375 0 0  0.375 0 0  0.40625 0 0  0.4375 0 0  0.46875 0 0  0.5 0 0  0.53125 0 0  0.5625 0 0  0.59375 0 0  0.625 0 0  0.65625 0 0  0.6875 0 0  0.71875 0 0  0.75 0 0  0.78125 0 0  0.8125 0 0  0.84375 0 0  0.875 0 0  0.90625 0 0  0.9375 0 0  0.96875 0 0  1 0 0  0 0.03125 0  0.03125 0.03125 0  0.0625 0.03125 0  0.09375 0.03125 0  0.125 0.03125 0  0.15625 0.03125 0  0.1875 0.03125 0  0.21875 0.03125 0  0.25 0.03125 0  0.28125 0.03125 0  0.3125 0.03125 0  0.34375 0.03125 0  0.375 0.03125 0  0.40625 0.03125 0  0.4375 0.03125 0  0.46875 0.03125 0  0.5 0.03125 0  0.53125 0.03125 0  0.5625 0.03125 0  0.59375 0.03125 0  0.625 0.03125 0  0.65625 0.03125 0  0.6875 0.03125 0  0.71875 0.03125 0  0.75 0.03125 0  0.78125 0.03125 0  0.8125 0.03125 0  0.84375 0.03125 0  0.875 0.03125 0  0.90625 0.03125 0  0.9375 0.03125 0  0.96875 0.03125 0  1 0.03125 0  0 0.0625 0  0.03125 0.0625 0  0.0625 0.0625 0  0.09375 0.0625 0  0.125 0.0625 0  0.15625 0.0625 0  0.1875 0.0625 0  0.21875 0.0625 0  0.25 0.0625 0  0.28125 0.0625 0  0.3125 0.0625 0  0.34375 0.0625 0  0.375 0.0625 0  0.40625 0.0625 0  0.4375 0.0625 0  0.46875 0.0625 0  0.5 0.0625 0  0.53125 0.0625 0  0.5625 0.0625 0  0.59375 0.0625 0  0.625 0.0625 0  0.65625 0.0625 0  0.6875 0.0625 0  0.71875 0.0625 0  0.75 0.0625 0  0.78125 0.0625 0  0.8125 0.0625 0  0.84375 0.0625 0  0.875 0.0625 0  0.90625 0.0625 0  0.9375 0.0625 0  0.96875 0.0625 0  1 0.0625 0  0 0.09375 0  0.03125 0.09375 0  0.0625 0.09375 0  0.09375 0.09375 0  0.125 0.09375 0  0.15625 0.09375 0  0.1875 0.09375 0  0.21875 0.09375 0  0.25 0.09375 0  0.28125 0.09375 0  0.3125 0.09375 0  0.34375 0.09375 0  0.375 0.09375 0  0.40625 0.09375 0  0.4375 0.09375 0  0.46875 0.09375 0  0.5 0.09375 0  0.53125 0.09375 0  0.5625 0.09375 0  0.59375 0.09375 0  0.625 0.09375 0  0.65625 0.09375 0  0.6875 0.09375 0  0.71875 0.09375 0  0.75 0.09375 0  0.78125 0.09375 0  0.8125 0.09375 0  0.84375 0.09375 0  0.875 0.09375 0  0.90625 0.09375 0  0.9375 0.09375 0  0.96875 0.09375 0  1 0.09375 0  0 0.125 0  0.03125 0.125 0  0.0625 0.125 0  0.09375 0.125 0  0.125 0.125 0  0.15625 0.125 0  0.1875 0.125 0  0.21875 0.125 0  0.25 0.125 0  0.28125 0.125 0  0.3125 0.125 0  0.34375 0.125 0  0.375 0.125 0  0.40625 0.125 0  0.4375 0.125 0  0.46875 0.125 0  0.5 0.125 0  0.53125 0.125 0  0.5625 0.125 0  0.59375 0.125 0  0.625 0.125 0  0.65625 0.125 0  0.6875 0.125 0  0.71875 0.125 0  0.75 0.125 0  0.78125 0.125 0  0.8125 0.125 0  0.84375 0.125 0  0.875 0.125 0  0.90625 0.125 0  0.9375 0.125 0  0.96875 0.125 0  1 0.125 0  0 0.15625 0  0.03125 0.15625 0  0.0625 0.15625 0  0.09375 0.15625 0  0.125 0.15625 0  0.15625 0.15625 0  0.1875 0.15625 0  0.21875 0.15625 0  0.25 0.15625 0  0.28125 0.15625 0  0.3125 0.15625 0  0.34375 0.15625 0  0.375 0.15625 0  0.40625 0.15625 0  0.4375 0.15625 0  0.46875 0.15625 0  0.5 0.15625 0  0.53125 0.15625 0  0.5625 0.15625 0  0.59375 0.15625 0  0.625 0.15625 0  0.65625 0.15625 0  0.6875 0.15625 0  0.71875 0.15625 0  0.75 0.15625 0  0.78125 0.15625 0  0.8125 0.15625 0  0.84375 0.15625 0  0.875 0.15625 0  0.90625 0.15625 0  0.9375 0.15625 0  0.96875 0.15625 0  1 0.15625 0  0 0.1875 0  0.03125 0.1875 0  0.0625 0.1875 0  0.09375 0.1875 0  0.125 0.1875 0  0.15625 0.1875 0  0.1875 0.1875 0  0.21875 0.1875 0  0.25 0.1875 0  0.28125 0.1875 0  0.3125 0.1875 0  0.34375 0.1875 0  0.375 0.1875 0  0.40625 0.1875 0  0.4375 0.1875 0  0.46875 0.1875 0  0.5 0.1875 0  0.53125 0.1875 0  0.5625 0.1875 0  0.59375 0.1875 0  0.625 0.1875 0  0.65625 0.1875 0  0.6875 0.1875 0  0.71875 0.1875 0  0.75 0.1875 0  0.78125 0.1875 0  0.8125 0.1875 0  0.84375 0.1875 0  0.875 0.1875 0  0.90625 0.1875 0  0.9375 0.1875 0  0.96875 0.1875 0  1 0.1875 0  0 0.21875 0  0.03125 0.21875 0  0.0625 0.21875 0  0.09375 0.21875 0  0.125 0.21875 0  0.15625 0.21875 0  0.1875 0.21875 0  0.21875 0.21875 0  0.25 0.21875 0  0.28125 0.21875 0  0.3125 0.21875 0  0.34375 0.21875 0  0.375 0.21875 0  0.40625 0.21875 0  0.4375 0.21875 0  0.46875 0.21875 0  0.5 0.21875 0  0.53125 0.21875 0  0.5625 0.21875 0  0.59375 0.21875 0  0.625 0.21875 0  0.65625 0.21875 0  0.6875 0.21875 0  0.71875 0.21875 0  0.75 0.21875 0  0.78125 0.21875 0  0.8125 0.21875 0  0.84375 0.21875 0  0.875 0.21875 0  0.90625 0.21875 0  0.9375 0.21875 0  0.96875 0.21875 0  1 0.21875 0  0 0.25 0  0.03125 0.25 0  0.0625 0.25 0  0.09375 0.25 0  0.125 0.25 0  0.15625 0.25 0  0.1875 0.25 0  0.21875 0.25 0  0.25 0.25 0  0.28125 0.25 0  0.3125 0.25 0  0.34375 0.25 0  0.375 0.25 0  0.40625 0.25 0  0.4375 0.25 0  0.46875 0.25 0  0.5 0.25 0  0.53125 0.25 0  0.5625 0.25 0  0.59375 0.25 0  0.625 0.25 0  0.65625 0.25 0  0.6875 0.25 0  0.71875 0.25 0  0.75 0.25 0  0.78125 0.25 0  0.8125 0.25 0  0.84375 0.25 0  0.875 0.25 0  0.90625 0.25 0  0.9375 0.25 0  0.96875 0.25 0  1 0.25 0  0 0.28125 0  0.03125 0.28125 0  0.0625 0.28125 0  0.09375 0.28125 0  0.125 0.28125 0  0.15625 0.28125 0  0.1875 0.28125 0  0.21875 0.28125 0  0.25 0.28125 0  0.28125 0.28125 0  0.3125 0.28125 0  0.34375 0.28125 0  0.375 0.28125 0  0.40625 0.28125 0  0.4375 0.28125 0  0.46875 0.28125 0  0.5 0.28125 0  0.53125 0.28125 0  0.5625 0.28125 0  0.59375 0.28125 0  0.625 0.28125 0  0.65625 0.28125 0  0.6875 0.28125 0  0.71875 0.28125 0  0.75 0.28125 0  0.78125 0.28125 0  0.8125 0.28125 0  0.84375 0.28125 0  0.875 0.28125 0  0.90625 0.28125 0  0.9375 0.28125 0  0.96875 0.28125 0  1 0.28125 0  0 0.3125 0  0.03125 0.3125 0  0.0625 0.3125 0  0.09375 0.3125 0  0.125 0.3125 0  0.15625 0.3125 0  0.1875 0.3125 0  0.21875 0.3125 0  0.25 0.3125 0  0.28125 0.3125 0  0.3125 0.3125 0  0.34375 0.3125 0  0.375 0.3125 0  0.40625 0.3125 0  0.4375 0.3125 0  0.46875 0.3125 0  0.5 0.3125 0  0.53125 0.3125 0  0.5625 0.3125 0  0.59375 0.3125 0  0.625 0.3125 0  0.65625 0.3125 0  0.6875 0.3125 0  0.71875 0.3125 0  0.75 0.3125 0  0.78125 0.3125 0  0.8125 0.3125 0  0.84375 0.3125 0  0.875 0.3125 0  0.90625 0.3125 0  0.9375 0.3125 0  0.96875 0.3125 0  1 0.3125 0  0 0.34375 0  0.03125 0.34375 0  0.0625 0.34375 0  0.09375 0.34375 0  0.125 0.34375 0  0.15625 0.34375 0  0.1875 0.34375 0  0.21875 0.34375 0  0.25 0.34375 0  0.28125 0.34375 0  0.3125 0.34375 0  0.34375 0.34375 0  0.375 0.34375 0  0.40625 0.34375 0  0.4375 0.34375 0  0.46875 0.34375 0  0.5 0.34375 0  0.53125 0.34375 0  0.5625 0.34375 0  0.59375 0.34375 0  0.625 0.34375 0  0.65625 0.34375 0  0.6875 0.34375 0  0.71875 0.34375 0  0.75 0.34375 0  0.78125 0.34375 0  0.8125 0.34375 0  0.84375 0.34375 0  0.875 0.34375 0  0.90625 0.34375 0  0.9375 0.34375 0  0.96875 0.34375 0  1 0.34375 0  0 0.375 0  0.03125 0.375 0  0.0625 0.375 0  0.09375 0.375 0  0.125 0.375 0  0.15625 0.375 0  0.1875 0.375 0  0.21875 0.375 0  0.25 0.375 0  0.28125 0.375 0  0.3125 0.375 0  0.34375 0.375 0  0.375 0.375 0  0.40625 0.375 0  0.4375 0.375 0  0.46875 0.375 0  0.5 0.375 0  0.53125 0.375 0  0.5625 0.375 0  0.59375 0.375 0  0.625 0.375 0  0.65625 0.375 0  0.6875 0.375 0  0.71875 0.375 0  0.75 0.375 0  0.78125 0.375 0  0.8125 0.375 0  0.84375 0.375 0  0.875 0.375 0  0.90625 0.375 0  0.9375 0.375 0  0.96875 0.375 0  1 0.375 0  0 0.40625 0  0.03125 0.40625 0  0.0625 0.40625 0  0.09375 0.40625 0  0.125 0.40625 0  0.15625 0.40625 0  0.1875 0.40625 0  0.21875 0.40625 0  0.25 0.40625 0  0.28125 0.40625 0  0.3125 0.40625 0  0.34375 0.40625 0  0.375 0.40625 0  0.40625 0.40625 0  0.4375 0.40625 0  0.46875 0.40625 0  0.5 0.40625 0  0.53125 0.40625 0  0.5625 0.40625 0  0.59375 0.40625 0  0.625 0.40625 0  0.65625 0.40625 0  0.6875 0.40625 0  0.71875 0.40625 0  0.75 0.40625 0  0.78125 0.40625 0  0.8125 0.40625 0  0.84375 0.40625 0  0.875 0.40625 0  0.90625 0.40625 0  0.9375 0.40625 0  0.96875 0.40625 0  1 0.40625 0  0 0.4375 0  0.03125 0.4375 0  0.0625 0.4375 0  0.09375 0.4375 0  0.125 0.4375 0  0.15625 0.4375 0  0.1875 0.4375 0  0.21875 0.4375 0  0.25 0.4375 0  0.28125 0.4375 0  0.3125 0.4375 0  0.34375 0.4375 0  0.375 0.4375 0  0.40625 0.4375 0  0.4375 0.4375 0  0.46875 0.4375 0  0.5 0.4375 0  0.53125 0.4375 0  0.5625 0.4375 0  0.59375 0.4375 0  0.625 0.4375 0  0.65625 0.4375 0  0.6875 0.4375 0  0.71875 0.4375 0  0.75 0.4375 0  0.78125 0.4375 0  0.8125 0.4375 0  0.84375 0.4375 0  0.875 0.4375 0  0.90625 0.4375 0  0.9375 0.4375 0  0.96875 0.4375 0  1 0.4375 0  0 0.46875 0  0.03125 0.46875 0  0.0625 0.46875 0  0.09375 0.46875 0  0.125 0.46875 0  0.15625 0.46875 0  0.1875 0.46875 0  0.21875 0.46875 0  0.25 0.46875 0  0.28125 0.46875 0  0.3125 0.46875 0  0.34375 0.46875 0  0.375 0.46875 0  0.40625 0.46875 0  0.4375 0.46875 0  0.46875 0.46875 0  0.5 0.46875 0  0.53125 0.46875 0  0.5625 0.46875 0  0.59375 0.46875 0  0.625 0.46875 0  0.65625 0.46875 0  0.6875 0.46875 0  0.71875 0.46875 0  0.75 0.46875 0  0.78125 0.46875 0  0.8125 0.46875 0  0.84375 0.46875 0  0.875 0.46875 0  0.90625 0.46875 0  0.9375 0.46875 0  0.96875 0.46875 0  1 0.46875 0  0 0.5 0  0.03125 0.5 0  0.0625 0.5 0  0.09375 0.5 0  0.125 0.5 0  0.15625 0.5 0  0.1875 0.5 0  0.21875 0.5 0  0.25 0.5 0  0.28125 0.5 0  0.3125 0.5 0  0.34375 0.5 0  0.375 0.5 0  0.40625 0.5 0  0.4375 0.5 0  0.46875 0.5 0  0.5 0.5 0  0.53125 0.5 0  0.5625 0.5 0  0.59375 0.5 0  0.625 0.5 0  0.65625 0.5 0  0.6875 0.5 0  0.71875 0.5 0  0.75 0.5 0  0.78125 0.5 0  0.8125 0.5 0  0.84375 0.5 0  0.875 0.5 0  0.90625 0.5 0  0.9375 0.5 0  0.96875 0.5 0  1 0.5 0  0 0.53125 0  0.03125 0.53125 0  0.0625 0.53125 0  0.09375 0.53125 0  0.125 0.53125 0  0.15625 0.53125 0  0.1875 0.53125 0  0.21875 0.53125 0  0.25 0.53125 0  0.28125 0.53125 0  0.3125 0.53125 0  0.34375 0.53125 0  0.375 0.53125 0  0.40625 0.53125 0  0.4375 0.53125 0  0.46875 0.53125 0  0.5 0.53125 0  0.53125 0.53125 0  0.5625 0.53125 0  0.59375 0.53125 0  0.625 0.53125 0  0.65625 0.53125 0  0.6875 0.53125 0  0.71875 0.53125 0  0.75 0.53125 0  0.78125 0.531
[...]
<PointData  Scalars="v_sol"> 
<DataArray  type="Float64"  Name="v_sol"  format="ascii">1.5366946739709888e-05  4.6702011780573973e-04  6.9635665562186406e-04  4.0621914922347899e-04  1.5366166040117638e-04  -8.5393005890691291e-04  9.7278733190560285e-04  4.1129742472857623e-04  -6.0625210028988951e-04  -2.5795055585597073e-03  -4.9755857641492745e-03  -6.4874484517149248e-03  -6.5874070959249147e-03  -5.3342553256761627e-03  -3.1789746686284705e-03  -7.8361453977127962e-04  1.5777271956076777e-03  3.6114801414948534e-03  5.3002288844404954e-03  6.4050143287302484e-03  6.8725082778591804e-03  6.3805578793174889e-03  5.1269882623654279e-03  3.5310004873420641e-03  1.2698040729518657e-03  -1.5700370226617146e-03  -3.5036468335675869e-03  -3.3304091904180605e-03  -2.0643439032951303e-03  -9.4835168005179521e-04  -2.8705649511135789e-04  -1.1314589917845808e-04  2.7258489476988495e-05  2.2563674268930386e-04  -2.5173655693055711e-03  -3.7923758646331001e-03  -1.9973496464908373e-03  -4.0622904738825362e-04  1.5080717520812759e-03  -2.5480699260276413e-03  8.8922971889162482e-06  4.2097923751171738e-03  8.7712401802423120e-03  1.8947995578681875e-02  2.9426665253755691e-02  3.4034022898983295e-02  3.1446055629793732e-02  2.3269131153141921e-02  1.1466413081129258e-02  -2.5918805674731578e-03  -1.7751568667833846e-02  -3.2317931828207760e-02  -4.3288672136883005e-02  -4.6842049765797145e-02  -4.0621041639785346e-02  -2.6949655016953677e-02  -1.1323972304292718e-02  3.9296799172616375e-03  1.5566131302428144e-02  1.9755468332223487e-02  1.5673623725297830e-02  8.9014565565632194e-03  4.2009078340276744e-03  1.5869497101697863e-03  2.5927399838494185e-04  -2.5285593447645348e-04  -1.3613955423654516e-04  -9.5096666466641857e-03  -1.1466626980695439e-02  -4.5964141001686356e-03  -4.0698079058104983e-04  3.4518008155950937e-03  9.5017808615421757e-03  2.2040221758041493e-02  4.8919764680706614e-02  7.5801591619271719e-02  9.3814557400711276e-02  9.5707960129446157e-02  8.5567793536518985e-02  6.6499301415780310e-02  4.3507919379399053e-02  1.7399347542924468e-02  -1.0069206901694968e-02  -3.9888725758208364e-02  -7.0154509843906060e-02  -9.8837160012614195e-02  -1.1792752673395263e-01  -1.1949200218694696e-01  -9.7601592659195088e-02  -6.2739950908506106e-02  -2.8053968213118924e-02  -3.0879862915931511e-03  1.9977930098775073e-02  3.2340422593665784e-02  2.8671815413218747e-02  1.7961371853629327e-02  9.4319775146003895e-03  3.4759138534146347e-03  -3.4216532698872989e-04  -8.6331000836129771e-04  -2.0066492381318780e-02  -1.6753155352223829e-02  -2.6994930903701244e-03  9.1634792798221537e-03  2.2799772048441101e-02  5.3127274173880877e-02  9.7129286114321173e-02  1.3837278425547053e-01  1.5751309602428684e-01  1.5392356490921194e-01  1.3497570202673465e-01  1.0902963109756464e-01  7.9729104330160727e-02  5.0146919750290071e-02  1.9671358202824417e-02  -1.1188002859276392e-02  -4.4423280548962454e-02  -8.0063957261099383e-02  -1.1913770657620686e-01  -1.5792756790300339e-01  -1.8768646541649942e-01  -1.9130977064808125e-01  -1.5687563663371121e-01  -9.6044638463903528e-02  -4.1227481406097978e-02  -7.4660145236962435e-03  1.8681223518295230e-02  3.1725770957261312e-02  2.8514200390888169e-02  1.8394790557868204e-02  1.0137289943398683e-02  5.3214097050225859e-04  -3.8515255259405400e-03  -3.1002530513533841e-02  -1.4618471744637866e-02  1.0985718832692792e-02  3.6088644543678446e-02  7.7794249328791823e-02  1.4025669759262704e-01  1.9370276019574978e-01  2.1103476396988907e-01  2.0060399115744001e-01  1.7372312953814711e-01  1.4223440088555833e-01  1.0930657455959043e-01  7.8492066119753401e-02  4.7709228520920889e-02  1.8180480080657372e-02  -1.2581535697139965e-02  -4.3405886221880720e-02  -7.6586140093369184e-02  -1.1140122729453915e-01  -1.5087723448500678e-01  -1.9420187645497922e-01  -2.3618155842011745e-01  -2.5320634270080833e-01  -2.1736780078136739e-01  -1.3173816980466127e-01  -4.9331767839894743e-02  -5.1036043853047676e-03  1.9342275612172742e-02  2.8314721047692566e-02  2.5175456207267292e-02  1.6040905672691008e-02  1.0876906605075246e-03  -9.1474687277120059e-03  -3.7771260669895029e-02  6.6562694705441698e-04  3.9798271818049027e-02  9.1473060517210839e-02  1.7188638311188703e-01  2.3649628946115642e-01  2.5280331904324277e-01  2.3812594520065766e-01  2.0584512877411812e-01  1.7181296898273291e-01  1.3848309854997709e-01  1.0850523283735160e-01  7.8193318435065495e-02  4.8850888559652583e-02  1.8055328163364890e-02  -1.2503798465910680e-02  -4.4730760219089130e-02  -7.6794139964416308e-02  -1.1006060578717207e-01  -1.4247182984415557e-01  -1.7709034696458115e-01  -2.1675506324856297e-01  -2.6533979406240715e-01  -2.9966722236319721e-01  -2.7119929187802644e-01  -1.6284715674131045e-01  -5.1185342951200807e-02  1.2245056033640990e-03  2.2663471596132360e-02  2.6037954625287633e-02  2.1159163456204132e-02  1.8207836694238558e-03  -1.5757297229544730e-02  -3.0948005200864270e-02  2.8056183669896720e-02  9.0593004952401648e-02  1.8401139727403173e-01  2.6297855525412384e-01  2.8631591115487270e-01  2.7275126269984312e-01  2.3724875041308174e-01  2.0243723026574362e-01  1.7049413901109384e-01  1.4122740872084155e-01  1.1103784294722323e-01  8.0910288216761800e-02  5.0061800834858353e-02  1.9297165362307991e-02  -1.2129757386740693e-02  -4.3806056624378427e-02  -7.6465195600140173e-02  -1.0950684609656755e-01  -1.4331746062025535e-01  -1.7559873819928021e-01  -2.0642640550600502e-01  -2.3953165721442696e-01  -2.8835473124259281e-01  -3.3649023501134628e-01  -3.1298274739606713e-01  -1.7693381299121150e-01  -3.9952610629522989e-02  1.0875405685685922e-02  2.7996236288219581e-02  2.3021186120397039e-02  2.0182789090523235e-03  -1.8862859919126913e-02  -9.5641733342931145e-03  7.2047504090598083e-02  1.7166769900097897e-01  2.7105233107560961e-01  3.1339730620460099e-01  3.0612747729002232e-01  2.6887323899711518e-01  2.3394215579773706e-01  2.0395635152066385e-01  1.7420386408689784e-01  1.4398850781300299e-01  1.1287803218333373e-01  8.2564234590530416e-02  5.1372146747392704e-02  2.0705740569789580e-02  -1.1149389078695488e-02  -4.2643641624164959e-02  -7.5198949833867296e-02  -1.0736950385158710e-01  -1.4037168285792148e-01  -1.7355659814387783e-01  -2.0687907152045323e-01  -2.3691577328422081e-01  -2.6575331839610766e-01  -3.1379510335294797e-01  -3.7154448996547823e-01  -3.3812421807791160e-01  -1.6106703674066480e-01  -1.4085245118117160e-02  2.1863907461864104e-02  2.7377946979104603e-02  2.8623614418050937e-03  -1.5727785260099793e-02  2.6882906506645567e-02  1.3816321435740378e-01  2.5363851904986484e-01  3.2906767884506694e-01  3.3596373819180020e-01  3.0232863879675498e-01  2.6663011508747941e-01  2.3822518722271679e-01  2.0675593216751217e-01  1.7716821110103054e-01  1.4545411130330363e-01  1.1594614133374123e-01  8.4218009587329293e-02  5.3987600160421853e-02  2.1837221904876351e-02  -8.9685262636836922e-03  -4.1599525070549266e-02  -7.3103977842385898e-02  -1.0636927377856829e-01  -1.3828977548215787e-01  -1.7137035144474047e-01  -2.0320386908835256e-01  -2.3707840762983770e-01  -2.6663862774864250e-01  -2.9398129378395987e-01  -3.4501919817065307e-01  -4.0814409113626726e-01  -3.3402269276208052e-01  -1.0631034726070869e-01  1.5232894062513568e-02  2.9360255620457812e-02  2.2069495655012922e-03  -5.6695225610209499e-03  8.1307393694367347e-02  2.0879362805574117e-01  3.1969500941854884e-01  3.6047245078582524e-01  3.3712641013282324e-01  3.0192402648872213e-01  2.7050662835141209e-01  2.4009687945864525e-01  2.0981504699605324e-01  1.7965545856659004e-01  1.4876808115154683e-01  1.1804699375069905e-01  8.6487103949903860e-02  5.5644836822935313e-02  2.3898459541076722e-02  -7.3275278002551724e-03  -3.9514043687044954e-02  -7.1244895404869668e-02  -1.0377718660590611e-01  -1.3603621536203789e-01  -1.6892582333160319e-01  -2.0127053273460188e-01  -2.3374727792431024e-01  -2.6719112464305556e-01  -2.9650175561445069e-01  -3.2285580622402166e-01  -3.8630038018148344e-01  -4.3791591313813821e-01  -2.7680196454139561e-01  -2.0320740045510582e-02  2.4383276300716072e-02  1.1888530083294317e-02  1.2550363054680826e-02  1.4266051724073575e-01  2.7451671035798558e-01  3.6556302262536133e-01  3.7227439870289109e-01  3.3818009870861487e-01  3.0376808764444391e-01  2.7363640633482966e-01  2.4440498769233610e-01  2.1322088973527559e-01  1.8259728638620135e-01  1.5117068087410229e-01  1.2027014739632252e-01  8.9010014106245358e-02  5.7920038854448547e-02  2.6236235521157458e-02  -5.2739049531474432e-03  -3.7313513710252232e-02  -6.9240442206352268e-02  -1.0167015988479655e-01  -1.3390308052349939e-01  -1.6654604244992924e-01  -1.9898715933541303e-01  -2.3143281334474247e-01  -2.6394912527219816e-01  -2.9858392119243904e-01  -3.2496612634305322e-01  -3.5623013142339527e-01  -4.4028277840973590e-01  -4.2877651015948037e-01  -1.4424337633962445e-01  3.7750655582102235e-02  3.8874524899753034e-03  3.1754209124027474e-02  2.0448590422321303e-01  3.2848444530188176e-01  3.9406742564695951e-01  3.7822868687757327e-01  3.3958912243114092e-01  3.0899252080964207e-01  2.7850304725949449e-01  2.4723202022509186e-01  2.1627224508515661e-01  1.8543660088088409e-01  1.5399274444063168e-01  1.2314520082048280e-01  9.1487792848043190e-02  6.0207641677950355e-02  2.8464564628025147e-02  -2.9781547466434417e-03  -3.4980266383282624e-02  -6.6786483380902067e-02  -9.9124341398680996e-02  -1.3133082272820468e-01  -1.6401325842784789e-01  -1.9674024053004355e-01  -2.2987291862820788e-01  -2.6177842790751821e-01  -2.9542244338401857e-01  -3.3007709584564604e-01  -3.5206593746370418e-01  -4.0431609528568191e-01  -4.9291638784045905e-01  -3.1280902775672531e-01  2.2406832276794370e-02  -3.3239966011335488e-03  4.8668413278915398e-02  2.5905814460854137e-01  3.6962545483052028e-01  4.1235099360858607e-01  3.8231533197862255e-01  3.4494860484015766e-01  3.1382414148328963e-01  2.8180833893140472e-01  2.5169801015361953e-01  2.1972113099633542e-01  1.8843515752421947e-01  1.5686895706843956e-01  1.2561491673537242e-01  9.3882479203289598e-02  6.2768794768830558e-02  3.1016487826679522e-02  -4.5785021559278276e-04  -3.2483649863326532e-02  -6.4284745137730401e-02  -9.6635525665999034e-02  -1.2884721736676277e-01  -1.6151273868987881e-01  -1.9389656214161649e-01  -2.2726756789153338e-01  -2.6074679592202138e-01  -2.9297378431881810e-01  -3.2874531229597181e-01  -3.5950179338886973e-01  -3.8355228437724709e-01  -4.8205659877847035e-01  -4.5813651104574660e-01  -6.9924121028265646e-02  4.5503813834263565e-02  5.9402948897669630e-02  3.0301405982066959e-01  3.9933197759171662e-01  4.2472414631457395e-01  3.8770354481682245e-01  3.5005299816347818e-01  3.1907016946560685e-01  2.8661313215114242e-01  2.5497120662164302e-01  2.2258766155903911e-01  1.9161726356030145e-01  1.5959155800259089e-01  1.2832041325786295e-01  9.6690368191235290e-02  6.5371748250121334e-02  3.3511244199614695e-02  2.1141892003453799e-03  -2.9797983051883786e-02  -6.1502645823391169e-02  -9.3734474175847127e-02  -1.2589621511294480e-01  -1.5873623100106454e-01  -1.9158613321654444e-01  -2.2453893976228831e-01  -2.5836237569045412e-01  -2.9204041919362844e-01  -3.2569667167142352e-01  -3.6332589587214970e-01  -3.8399982005579947e-01  -4.4786265925610574e-01  -5.4043955363496743e-01  -2.0263494129688156e-01  9.0335606372888025e-02  6.2901823422480727e-02  3.3430707378477104e-01  4.1974936807240182e-01  4.3407064969451004e-01  3.9295281778097108e-01  3.5610871435357538e-01  3.2351810438563050e-01  2.9026459841761815e-01  2.5878093616870101e-01  2.2602421593930408e-01  1.9450912110000032e-01  1.6220823403492399e-01  1.3106529263778094e-01  9.9139367899593364e-02  6.7822613627166156e-02  3.6215663434667610e-02  4.9029137615578906e-03  -2.6943178517599836e-02  -5.8594116753189200e-02  -9.0774320068990930e-02  -1.2289017082625354e-01  -1.5547452122144498e-01  -1.8842619460859314e-01  -2.2184219544778921e-01  -2.5555386890131859e-01  -2.9043129833419679e-01  -3.2384027606622223e-01  -3.6206729006773403e-01  -3.9203505164688363e-01  -4.2301881683887665e-01  -5.6094915651716359e-01  -3.3739017956252476e-01  9.4280077122399858e-02  5.9050609855416394e-02  3.5246182685207922e-01  4.3249969812164507e-01  4.4112538803958845e-01  3.9821937928445700e-01  3.6097096871719347e-01  3.2785265239829220e-01  2.9431692626339884e-01  2.6165075461929177e-01  2.2886389392759468e-01  1.9717948441429275e-01  1.6492131128619456e-01  1.3358922081987989e-01  1.0165253731915798e-01  7.0603258398489077e-02  3.8981254520421185e-02  7.6479820420452841e-03  -2.3959510245839803e-02  -5.5435889609882723e-02  -8.7357700194755264e-02  -1.1951255809018074e-01  -1.5205442074756192e-01  -1.8502832492427951e-01  -2.1859504570379112e-01  -2.5236826013903779e-01  -2.8769872245654260e-01  -3.2256883306341966e-01  -3.5906633129077825e-01  -3.9767167421401073e-01  -4.1453215410125105e-01  -5.4644047967243736e-01  -4.5458933149387037e-01  6.9634787966262962e-02  4.8828168505462871e-02  3.5705237004754786e-01  4.3891330102437565e-01  4.4592957470444494e-01  4.0272410745725562e-01  3.6538385540879581e-01  3.3114147533944055e-01  2.9748404386580646e-01  2.6468901312742182e-01  2.3167117834180492e-01  1.9955814739788263e-01  1.6734142188706136e-01  1.3585760154665191e-01  1.0415868604243803e-01  7.3063549204915548e-02  4.1533237909588315e-02  1.0581673134115009e-02  -2.0720063197854407e-02  -5.2138614279033484e-02  -8.3738774408308750e-02  -1.1568557349746104e-01  -1.4811329051312866e-01  -1.8088046101506131e-01  -2.1474682776091195e-01  -2.4871974460047411e-01  -2.8414921195689030e-01  -3.2021778951481272e-01  -3.5647207045669871e-01  -3.9857631777564773e-01  -4.1672352021681486e-01  -5.2093871382589496e-01  -5.4330995442649566e-01  2.7267213482212251e-02  3.3346461278481954e-02  3.4798768965865906e-01  4.3934402006807621e-01  4.4846308142986158e-01  4.0643400717019756e-01  3.6853391021704723e-01  3.3425767299906722e-01  3.0005570954576388e-01  2.6684321276849582e-01  2.3390730534887785e-01  2.0169949402988613e-01  1.6951997817249936e-01  1.3798508738783849e-01  1.0649833438707103e-01  7.5433123363310609e-02  4.4392950320202476e-02  1.3592676967022850e-02  -1.7506664225105887e-02  -4.8489116269718954e-02  -7.9905829751754059e-02  -1.1133088822527913e-01  -1.4384099088207358e-01  -1.7611612410297009e-01  -2.1020033065187360e-01  -2.4393714119956283e-01  -2.8008910323901975e-01  -3.1618442347717834e-01  -3.5406069122139733e-01  -3.9579235996604994e-01  -4.2243850190080939e-01  -4.9698438671061340e-01  -6.0461735792740501e-01  -2.0255149467080933e-02  1.4751284288640316e-02  3.2457474678955528e-01  4.3419582861553113e-01  4.4790346066685099e-01  4.0978550164110850e-01  3.7062487380595477e-01  3.3614044211089039e-01  3.0229868801150545e-01  2.6891044954063631e-01  2.3565758729899941e-01  2.0335172211761934e-01  1.7127923841920864e-01  1.3978317726091999e-01  1.0853975163268782e-01  7.7668982709699630e-02  4.6982492121210945e-02  1.6490423351199806e-02  -1.4280210676605681e-02  -4.4309615401401249e-02  -7.5852369101088127e-02  -1.0629412502161220e-01  -1.3899102804645888e-01  -1.7036390245597829e-01  -2.0501029897419773e-01  -2.3786476840071721e-01  -2.7519171252808328e-01  -3.1029625674787042e-01  -3.5099705846368551e-01  -3.9041417316326715e-01  -4.2723354437480704e-01  -4.7690295924481663e-01  -6.4430314420818768e-01  -6.6515682878642388e-02  -4.7533071417747924e-03  2.8697265705082947e-01  4.2221596740643952e-01  4.4444096841696640e-01  4.1208996330880998e-01  3.7217848677298954e-01  3.3795374403424672e-01  3.0318408211609205e-01  2.7008103030043068e-01  2.3707974610640747e-01  2.0466102860644658e-01  1.7263447779334548e-01  1.4128402065999371e-01  1.1021820104410043e-01  7.9876274047231480e-02  4.9217459845174547e-02  1.9820241697372992e-02  -1.0937256919188220e-02  -4.0031733687413876e-02  -7.1610475232255597e-02  -1.0067051112873694e-01  -1.3363958447601884e-01  -1.6360017150490033e-01  -1.9886938559276152e-01  -2.3037162430252217e-01  -2.6908180340575549e-01  -3.0259394601253292e-01  -3.4628083471717364e-01  -3.8293028345238572e-01  -4.2886053506825722e-01  -4.5951048213469298e-01  -6.6849045412131147e-01  -1.0810522777827040e-01  -2.0763088723824676e-02  2.3541410127046636e-01  4.0189471365682961e-01  4.3650091003253133e-01  4.1416568020069672e-01  3.7295113378530709e-01  3.3832848847483010e-01  3.0472089282946740e-01  2.7088163197542431e-01  2.3757971650110513e-01  2.0532551889165873e-01  1.7332463010435786e-01  1.4246573885320965e-01  1.1120906543867426e-01  8.1956364069731932e-02  5.1109409581966157e-02  2.2973394039958756e-02  -7.8024709026995294e-03  -3.5437867755751765e-02  -6.6664861991780372e-02  -9.4390773400343395e-02  -1.2750635156280080e-01  -1.5585945219320230e-01  -1.9160554102093860e-01  -2.2138350833034648e-01  -2.6128889786683912e-01  -2.9300056694463877e-01  -3.3926320818566291e-01  -3.7324028304220830e-01  -4.2642222396057544e-01  -4.4259557792665710e-01  -6.8152103052359536e-01  -1.4487445948812114e-01  -2.9954132693764710e-02  1.7385874731119627e-01  3.6843788910416059e-01  4.2428923508795696e-01  4.1329421647805964e-01  3.7496793048753968e-01  3.3879293936793931e-01  3.0407017917613943e-01  2.7108765230583742e-01  2.3783687768904904e-01  2.0575817542087760e-01  1.7313806722651892e-01  1.4331369693627158e-01  1.1163041906695904e-01  8.3604197480203160e-02  5.2808600284936481e-02  2.6030684600770976e-02  -4.4848646154042431e-03  -3.0528291738968816e-02  -6.1654631613401477e-02  -8.7920787426710889e-02  -1.2031340220819053e-01  -1.4708933384775072e-01  -1.8285790515734898e-01  -2.1094891094446877e-01  -2.5144350878349930e-01  -2.8133949900616512e-01  -3.2944391483726365e-01  -3.6105090099349280e-01  -4.1949780145660892e-01  -4.2446925051282169e-01  -6.8628172925141662e-01  -1.7723541858098465e-01  -2.7181543579069167e-02  1.0772329526573096e-01  3.1815181236877266e-01  4.0387574438676643e-01  4.1000738688434302e-01  3.7605216924488510e-01  3.3869796426754373e-01  3.0481248604130234e-01  2.7084057101085302e-01  2.3638948946935362e-01  2.0546300087888608e-01  1.7215000351290186e-01  1.4329006294827984e-01  1.1148569835754289e-01  8.4623372684945672e-02  5.4004185663761063e-02  2.8800380627110551e-02  -1.3219591965938009e-03  -2.5644523908559803e-02  -5.6138813906833090e-02  -8.0202975958325651e-02  -1.1220125524152100e-01  -1.3770372809808165e-01  -1.7228446378735235e-01  -1.9898101194807094e-01  -2.3915676922676554e-01  -2.6751614187452782e-01  -3.1642280197190942e-01  -3.4595179518062430e-01  -4.0788223338264307e-01  -4.0373917249513719e-01  -6.8449741084482396e-01  -2.0626358961355140e-01  -1.6762849942834106e-02  4.9406973069907510e-02  2.4744881497362323e-01  3.7273683925083617e-01  3.9908108632498523e-01  3.7795639281054255e-01  3.4007525847307662e-01  3.0205729156558708e-01  2.7065479410928206e-01  2.3497512941247223e-01  2.0430374028419276e-01  1.7030581952332252e-01  1.4237772361530049e-01  1.1042398993973163e-01  8.5098630104386633e-02  5.4694026473111661e-02  3.1295767313806497e-02  1.7247678535144007e-03  -2.0524262774656760e-02  -5.0302733567822090e-02  -7.2427276430078430e-02  -1.0383532181937216e-01  -1.2622692986123557e-01  -1.6017803691712434e-01  -1.8559873584252912e-01  -2.2396626419398988e-01  -2.5144502971261085e-01  -2.9977870825018127e-01  -3.2759583752098531e-01  -3.9125337735269528e-01  -3.7942205366350917e-01  -6.7730561386346189e-01  -2.3275087671951317e-01  -4.7727964907007901e-03  7.8598785341406734e-03  1.6562341323504332e-01  3.2019950499552091e-01  3.8132510833717032e-01  3.7305623271883676e-01  3.4244609965837775e-01  3.0271015409063290e-01  2.6848832596520428e-01  2.3178366982819013e-01  2.0175294606210131e-01  1.6729827518883802e-01  1.4025912850564479e-01  1.0837281933785935e-01  8.4374457899662053e-02  5.4748072739601472e-02  3.3056333358963186e-02  4.6572290195957900e-03  -1.5673088493376241e-02  -4.4030371347871973e-02  -6.3921854538588355e-02  -9.3406840398678276e-0