<?xml version="1.0"?>
<VTKFile type="UnstructuredGrid"  version="0.1"  >
<UnstructuredGrid>
<Piece  NumberOfPoints="25" NumberOfCells="16">
<Points>
<DataArray  type="Float64"  NumberOfComponents="3"  format="ascii">0 0 0  0.25 0 0  0.5 0 0  0.75 0 0  1 0 0  0 0.25 0  0.25 0.25 0  0.5 0.25 0  0.75 0.25 0  1 0.25 0  0 0.5 0  0.25 0.5 0  0.5 0.5 0  0.75 0.5 0  1 0.5 0  0 0.75 0  0.25 0.75 0  0.5 0.75 0  0.75 0.75 0  1 0.75 0  0 1 0  0.25 1 0  0.5 1 0  0.75 1 0  1 1 0  </DataArray>
</Points>
<Cells>
<DataArray  type="UInt32"  Name="connectivity"  format="ascii">0 1 6 5  1 2 7 6  2 3 8 7  3 4 9 8  5 6 11 10  6 7 12 11  7 8 13 12  8 9 14 13  10 11 16 15  11 12 17 16  12 13 18 17  13 14 19 18  15 16 21 20  16 17 22 21  17 18 23 22  18 19 24 23  </DataArray>
<DataArray  type="UInt32"  Name="offsets"  format="ascii">4 8 12 16 20 24 28 32 36 40 44 48 52 56 60 64 </DataArray>
<DataArray  type="UInt8"  Name="types"  format="ascii">9 9 9 9 9 9 9 9 9 9 9 9 9 9 9 9 </DataArray>
</Cells>
<PointData  Scalars="u_sol"> 
<DataArray  type="Float64"  Name="u_sol"  format="ascii">-4.5221455206867164e-04  2.3203914246838200e-03  6.0368293385751424e-03  4.1888633294920354e-03  -7.4265059972683685e-04  -1.8658227177178566e-03  9.5746202181893458e-03  2.4879029280664260e-02  1.7240821702332657e-02  -3.0574602536996643e-03  -1.5840618886845022e-07  6.1546166433244787e-07  2.1657632198667995e-06  7.2644658287082519e-07  -1.7565777800680402e-07  1.8659091211009357e-03  -9.5749559247335272e-03  -2.4880210606121084e-02  -1.7241217945733529e-02  3.0575560670364262e-03  4.5235855769841906e-04  -2.3209509353748106e-03  -6.0387982142602976e-03  -4.1895237353855629e-03  7.4281028861750142e-04  </DataArray> 
</PointData> 
</Piece>
</UnstructuredGrid>
</VTKFile>