<?xml version="1.0"?>
<VTKFile type="UnstructuredGrid"  version="0.1"  >
<UnstructuredGrid>
<Piece  NumberOfPoints="25" NumberOfCells="16">
<Points>
<DataArray  type="Float64"  NumberOfComponents="3"  format="ascii">0 0 0  0.25 0 0  0.5 0 0  0.75 0 0  1 0 0  0 0.25 0  0.25 0.25 0  0.5 0.25 0  0.75 0.25 0  1 0.25 0  0 0.5 0  0.25 0.5 0  0.5 0.5 0  0.75 0.5 0  1 0.5 0  0 0.75 0  0.25 0.75 0  0.5 0.75 0  0.75 0.75 0  1 0.75 0  0 1 0  0.25 1 0  0.5 1 0  0.75 1 0  1 1 0  </DataArray>
</Points>
<Cells>
<DataArray  type="UInt32"  Name="connectivity"  format="ascii">0 1 6 5  1 2 7 6  2 3 8 7  3 4 9 8  5 6 11 10  6 7 12 11  7 8 13 12  8 9 14 13  10 11 16 15  11 12 17 16  12 13 18 17  13 14 19 18  15 16 21 20  16 17 22 21  17 18 23 22  18 19 24 23  </DataArray>
<DataArray  type="UInt32"  Name="offsets"  format="ascii">4 8 12 16 20 24 28 32 36 40 44 48 52 56 60 64 </DataArray>
<DataArray  type="UInt8"  Name="types"  format="ascii">9 9 9 9 9 9 9 9 9 9 9 9 9 9 9 9 </DataArray>
</Cells>
<PointData  Scalars="v_sol"> 
<DataArray  type="Float64"  Name="v_sol"  format="ascii">2.5315487731648330e-04  2.1491664631825085e-03  9.1993528123251761e-04  -2.6509493431966010e-03  -1.0894596781217494e-03  -1.3546890263109524e-03  -1.1504847710924176e-02  -4.9274609533653951e-03  1.4192553682041389e-02  5.8341989822657528e-03  -2.6066771476478106e-03  -2.2123977539597241e-02  -9.4637891631150547e-03  2.7286044343869713e-02  1.1210121835655661e-02  -1.3543770270223734e-03  -1.1506710060128482e-02  -4.9275719381216805e-03  1.4194476568795873e-02  5.8339878784066952e-03  2.5310638003875509e-04  2.1494559475534057e-03  9.1995253270626661e-04  -2.6512482374707893e-03  -1.0894268640060604e-03  </DataArray> 
</PointData> 
</Piece>
</UnstructuredGrid>
</VTKFile>