<?xml version="1.0"?>
<VTKFile type="UnstructuredGrid"  version="0.1"  >
<UnstructuredGrid>
<Piece  NumberOfPoints="16641" NumberOfCells="16384">
<Points>
<DataArray  type="Float64"  NumberOfComponents="3"  format="ascii">0 0 0  0.0078125 0 0  0.015625 0 0  0.0234375 0 0  0.03125 0 0  0.0390625 0 0  0.046875 0 0  0.0546875 0 0  0.0625 0 0  0.0703125 0 0  0.078125 0 0  0.0859375 0 0  0.09375 0 0  0.1015625 0 0  0.109375 0 0  0.1171875 0 0  0.125 0 0  0.1328125 0 0  0.140625 0 0  0.1484375 0 0  0.15625 0 0  0.1640625 0 0  0.171875 0 0  0.1796875 0 0  0.1875 0 0  0.1953125 0 0  0.203125 0 0  0.2109375 0 0  0.21875 0 0  0.2265625 0 0  0.234375 0 0  0.2421875 0 0  0.25 0 0  0.2578125 0 0  0.265625 0 0  0.2734375 0 0  0.28125 0 0  0.2890625 0 0  0.296875 0 0  0.3046875 0 0  0.3125 0 0  0.3203125 0 0  0.328125 0 0  0.3359375 0 0  0.34375 0 0  0.3515625 0 0  0.359375 0 0  0.3671875 0 0  0.375 0 0  0.3828125 0 0  0.390625 0 0  0.3984375 0 0  0.40625 0 0  0.4140625 0 0  0.421875 0 0  0.4296875 0 0  0.4375 0 0  0.4453125 0 0  0.453125 0 0  0.4609375 0 0  0.46875 0 0  0.4765625 0 0  0.484375 0 0  0.4921875 0 0  0.5 0 0  0.5078125 0 0  0.515625 0 0  0.5234375 0 0  0.53125 0 0  0.5390625 0 0  0.546875 0 0  0.5546875 0 0  0.5625 0 0  0.5703125 0 0  0.578125 0 0  0.5859375 0 0  0.59375 0 0  0.6015625 0 0  0.609375 0 0  0.6171875 0 0  0.625 0 0  0.6328125 0 0  0.640625 0 0  0.6484375 0 0  0.65625 0 0  0.6640625 0 0  0.671875 0 0  0.6796875 0 0  0.6875 0 0  0.6953125 0 0  0.703125 0 0  0.7109375 0 0  0.71875 0 0  0.7265625 0 0  0.734375 0 0  0.7421875 0 0  0.75 0 0  0.7578125 0 0  0.765625 0 0  0.7734375 0 0  0.78125 0 0  0.7890625 0 0  0.796875 0 0  0.8046875 0 0  0.8125 0 0  0.8203125 0 0  0.828125 0 0  0.8359375 0 0  0.84375 0 0  0.8515625 0 0  0.859375 0 0  0.8671875 0 0  0.875 0 0  0.8828125 0 0  0.890625 0 0  0.8984375 0 0  0.90625 0 0  0.9140625 0 0  0.921875 0 0  0.9296875 0 0  0.9375 0 0  0.9453125 0 0  0.953125 0 0  0.9609375 0 0  0.96875 0 0  0.9765625 0 0  0.984375 0 0  0.9921875 0 0  1 0 0  0 0.0078125 0  0.0078125 0.0078125 0  0.015625 0.0078125 0  0.0234375 0.0078125 0  0.03125 0.0078125 0  0.0390625 0.0078125 0  0.046875 0.0078125 0  0.0546875 0.0078125 0  0.0625 0.0078125 0  0.0703125 0.0078125 0  0.078125 0.0078125 0  0.0859375 0.0078125 0  0.09375 0.0078125 0  0.1015625 0.0078125 0  0.109375 0.0078125 0  0.1171875 0.0078125 0  0.125 0.0078125 0  0.1328125 0.0078125 0  0.140625 0.0078125 0  0.1484375 0.0078125 0  0.15625 0.0078125 0  0.1640625 0.0078125 0  0.171875 0.0078125 0  0.1796875 0.0078125 0  0.1875 0.0078125 0  0.1953125 0.0078125 0  0.203125 0.0078125 0  0.2109375 0.0078125 0  0.21875 0.0078125 0  0.2265625 0.0078125 0  0.234375 0.0078125 0  0.2421875 0.0078125 0  0.25 0.0078125 0  0.2578125 0.0078125 0  0.265625 0.0078125 0  0.2734375 0.0078125 0  0.28125 0.0078125 0  0.2890625 0.0078125 0  0.296875 0.0078125 0  0.3046875 0.0078125 0  0.3125 0.0078125 0  0.3203125 0.0078125 0  0.328125 0.0078125 0  0.3359375 0.0078125 0  0.34375 0.0078125 0  0.3515625 0.0078125 0  0.359375 0.0078125 0  0.3671875 0.0078125 0  0.375 0.0078125 0  0.3828125 0.0078125 0  0.390625 0.0078125 0  0.3984375 0.0078125 0  0.40625 0.0078125 0  0.4140625 0.0078125 0  0.421875 0.0078125 0  0.4296875 0.0078125 0  0.4375 0.0078125 0  0.4453125 0.0078125 0  0.453125 0.0078125 0  0.4609375 0.0078125 0  0.46875 0.0078125 0  0.4765625 0.0078125 0  0.484375 0.0078125 0  0.4921875 0.0078125 0  0.5 0.0078125 0  0.5078125 0.0078125 0  0.515625 0.0078125 0  0.5234375 0.0078125 0  0.53125 0.0078125 0  0.5390625 0.0078125 0  0.546875 0.0078125 0  0.5546875 0.0078125 0  0.5625 0.0078125 0  0.5703125 0.0078125 0  0.578125 0.0078125 0  0.5859375 0.0078125 0  0.59375 0.0078125 0  0.6015625 0.0078125 0  0.609375 0.0078125 0  0.6171875 0.0078125 0  0.625 0.0078125 0  0.6328125 0.0078125 0  0.640625 0.0078125 0  0.6484375 0.0078125 0  0.65625 0.0078125 0  0.6640625 0.0078125 0  0.671875 0.0078125 0  0.6796875 0.0078125 0  0.6875 0.0078125 0  0.6953125 0.0078125 0  0.703125 0.0078125 0  0.7109375 0.0078125 0  0.71875 0.0078125 0  0.7265625 0.0078125 0  0.734375 0.0078125 0  0.7421875 0.0078125 0  0.75 0.0078125 0  0.7578125 0.0078125 0  0.765625 0.0078125 0  0.7734375 0.0078125 0  0.78125 0.0078125 0  0.7890625 0.0078125 0  0.796875 0.0078125 0  0.8046875 0.0078125 0  0.8125 0.0078125 0  0.8203125 0.0078125 0  0.828125 0.0078125 0  0.8359375 0.0078125 0  0.84375 0.0078125 0  0.8515625 0.0078125 0  0.859375 0.0078125 0  0.8671875 0.0078125 0  0.875 0.0078125 0  0.8828125 0.0078125 0  0.890625 0.0078125 0  0.8984375 0.0078125 0  0.90625 0.0078125 0  0.9140625 0.0078125 0  0.921875 0.0078125 0  0.9296875 0.0078125 0  0.9375 0.0078125 0  0.9453125 0.0078125 0  0.953125 0.0078125 0  0.9609375 0.0078125 0  0.96875 0.0078125 0  0.9765625 0.0078125 0  0.984375 0.0078125 0  0.9921875 0.0078125 0  1 0.0078125 0  0 0.015625 0  0.0078125 0.015625 0  0.015625 0.015625 0  0.0234375 0.015625 0  0.03125 0.015625 0  0.0390625 0.015625 0  0.046875 0.015625 0  0.0546875 0.015625 0  0.0625 0.015625 0  0.0703125 0.015625 0  0.078125 0.015625 0  0.0859375 0.015625 0  0.09375 0.015625 0  0.1015625 0.015625 0  0.109375 0.015625 0  0.1171875 0.015625 0  0.125 0.015625 0  0.1328125 0.015625 0  0.140625 0.015625 0  0.1484375 0.015625 0  0.15625 0.015625 0  0.1640625 0.015625 0  0.171875 0.015625 0  0.1796875 0.015625 0  0.1875 0.015625 0  0.1953125 0.015625 0  0.203125 0.015625 0  0.2109375 0.015625 0  0.21875 0.015625 0  0.2265625 0.015625 0  0.234375 0.015625 0  0.2421875 0.015625 0  0.25 0.015625 0  0.2578125 0.015625 0  0.265625 0.015625 0  0.2734375 0.015625 0  0.28125 0.015625 0  0.2890625 0.015625 0  0.296875 0.015625 0  0.3046875 0.015625 0  0.3125 0.015625 0  0.3203125 0.015625 0  0.328125 0.015625 0  0.3359375 0.015625 0  0.34375 0.015625 0  0.3515625 0.015625 0  0.359375 0.015625 0  0.3671875 0.015625 0  0.375 0.015625 0  0.3828125 0.015625 0  0.390625 0.015625 0  0.3984375 0.015625 0  0.40625 0.015625 0  0.4140625 0.015625 0  0.421875 0.015625 0  0.4296875 0.015625 0  0.4375 0.015625 0  0.4453125 0.015625 0  0.453125 0.015625 0  0.4609375 0.015625 0  0.46875 0.015625 0  0.4765625 0.015625 0  0.484375 0.015625 0  0.4921875 0.015625 0  0.5 0.015625 0  0.5078125 0.015625 0  0.515625 0.015625 0  0.5234375 0.015625 0  0.53125 0.015625 0  0.5390625 0.015625 0  0.546875 0.015625 0  0.5546875 0.015625 0  0.5625 0.015625 0  0.5703125 0.015625 0  0.578125 0.015625 0  0.5859375 0.015625 0  0.59375 0.015625 0  0.6015625 0.015625 0  0.609375 0.015625 0  0.6171875 0.015625 0  0.625 0.015625 0  0.6328125 0.015625 0  0.640625 0.015625 0  0.6484375 0.015625 0  0.65625 0.015625 0  0.6640625 0.015625 0  0.671875 0.015625 0  0.6796875 0.015625 0  0.6875 0.015625 0  0.6953125 0.015625 0  0.703125 0.015625 0  0.7109375 0.015625 0  0.71875 0.015625 0  0.7265625 0.015625 0  0.734375 0.015625 0  0.7421875 0.015625 0  0.75 0.015625 0  0.7578125 0.015625 0  0.765625 0.015625 0  0.7734375 0.015625 0  0.78125 0.015625 0  0.7890625 0.015625 0  0.796875 0.015625 0  0.8046875 0.015625 0  0.8125 0.015625 0  0.8203125 0.015625 0  0.828125 0.015625 0  0.8359375 0.015625 0  0.84375 0.015625 0  0.8515625 0.015625 0  0.859375 0.015625 0  0.8671875 0.015625 0  0.875 0.015625 0  0.8828125 0.015625 0  0.890625 0.015625 0  0.8984375 0.015625 0  0.90625 0.015625 0  0.9140625 0.015625 0  0.921875 0.015625 0  0.9296875 0.015625 0  0.9375 0.015625 0  0.9453125 0.015625 0  0.953125 0.015625 0  0.9609375 0.015625 0  0.96875 0.015625 0  0.9765625 0.015625 0  0.984375 0.015625 0  0.9921875 0.015625 0  1 0.015625 0  0 0.0234375 0  0.0078125 0.0234375 0  0.015625 0.0234375 0  0.0234375 0.0234375 0  0.03125 0.0234375 0  0.0390625 0.0234375 0  0.046875 0.0234375 0  0.0546875 0.0234375 0  0.0625 0.0234375 0  0.0703125 0.0234375 0  0.078125 0.0234375 0  0.0859375 0.0234375 0  0.09375 0.0234375 0  0.1015625 0.0234375 0  0.109375 0.0234375 0  0.1171875 0.0234375 0  0.125 0.0234375 0  0.1328125 0.0234375 0  0.140625 0.0234375 0  0.1484375 0.0234375 0  0.15625 0.0234375 0  0.1640625 0.0234375 0  0.171875 0.0234375 0  0.1796875 0.0234375 0  0.1875 0.0234375 0  0.1953125 0.0234375 0  0.203125 0.0234375 0  0.2109375 0.0234375 0  0.21875 0.0234375 0  0.2265625 0.0234375 0  0.234375 0.0234375 0  0.2421875 0.0234375 0  0.25 0.0234375 0  0.2578125 0.0234375 0  0.265625 0.0234375 0  0.2734375 0.0234375 0  0.28125 0.0234375 0  0.2890625 0.0234375 0  0.296875 0.0234375 0  0.3046875 0.0234375 0  0.3125 0.0234375 0  0.3203125 0.0234375 0  0.328125 0.0234375 0  0.3359375 0.0234375 0  0.34375 0.0234375 0  0.3515625 0.0234375 0  0.359375 0.0234375 0  0.3671875 0.0234375 0  0.375 0.0234375 0  0.3828125 0.0234375 0  0.390625 0.0234375 0  0.3984375 0.0234375 0  0.40625 0.0234375 0  0.4140625 0.0234375 0  0.421875 0.0234375 0  0.4296875 0.0234375 0  0.4375 0.0234375 0  0.4453125 0.0234375 0  0.453125 0.0234375 0  0.4609375 0.0234375 0  0.46875 0.0234375 0  0.4765625 0.0234375 0  0.484375 0.0234375 0  0.4921875 0.0234375 0  0.5 0.0234375 0  0.5078125 0.0234375 0  0.515625 0.0234375 0  0.5234375 0.0234375 0  0.53125 0.0234375 0  0.5390625 0.0234375 0  0.546875 0.0234375 0  0.5546875 0.0234375 0  0.5625 0.0234375 0  0.5703125 0.0234375 0  0.578125 0.0234375 0  0.5859375 0.0234375 0  0.59375 0.0234375 0  0.6015625 0.0234375 0  0.609375 0.0234375 0  0.6171875 0.0234375 0  0.625 0.0234375 0  0.6328125 0.0234375 0  0.640625 0.0234375 0  0.6484375 0.0234375 0  0.65625 0.0234375 0  0.6640625 0.0234375 0  0.671875 0.0234375 0  0.6796875 0.0234375 0  0.6875 0.0234375 0  0.6953125 0.0234375 0  0.703125 0.0234375 0  0.7109375 0.0234375 0  0.71875 0.0234375 0  0.7265625 0.0234375 0  0.734375 0.0234375 0  0.7421875 0.0234375 0  0.75 0.0234375 0  0.7578125 0.0234375 0  0.765625 0.0234375 0  0.7734375 0.0234375 0  0.78125 0.0234375 0  0.7890625 0.0234375 0  0.796875 0.0234375 0  0.8046875 0.0234375 0  0.8125 0.0234375 0  0.8203125 0.0234375 0  0.828125 0.0234375 0  0.8359375 0.0234375 0  0.84375 0.0234375 0  0.8515625 0.0234375 0  0.859375 0.0234375 0  0.8671
[...]
<PointData  Scalars="v_sol"> 
<DataArray  type="Float64"  Name="v_sol"  format="ascii">-1.9718146874631597e-06  1.0919202416070214e-06  1.3268763289341340e-05  2.5850359728184870e-05  3.6318833259162475e-05  4.3811817081812344e-05  4.8145272920558244e-05  4.9425924956102381e-05  4.7985315383320150e-05  4.4323238959835151e-05  3.9053347670403142e-05  3.2836982935844394e-05  2.6318450782221912e-05  2.0068219013155835e-05  1.4541240137841244e-05  1.0051725133949833e-05  6.7640256212171856e-06  4.6967767205769191e-06  3.7376642600982374e-06  3.6663686139633307e-06  4.1840971708328257e-06  4.9480525886534966e-06  5.6084341199299610e-06  5.8440928141159292e-06  5.3917482780295339e-06  4.0635987698384851e-06  1.7499164005693171e-06  -1.5934098918805539e-06  -5.9684608226183375e-06  -1.1363067766353773e-05  -1.7775037155413879e-05  -2.5226861102120861e-05  -3.3768549973801776e-05  -4.3470131962573778e-05  -5.4408000825687552e-05  -6.6649851047548018e-05  -8.0241642959556452e-05  -9.5197967874170625e-05  -1.1149545171707125e-04  -1.2906810210433316e-04  -1.4780370978368271e-04  -1.6754104844906591e-04  -1.8806815968893347e-04  -2.0912222181751058e-04  -2.3039147056477352e-04  -2.5151940583778272e-04  -2.7211126509935665e-04  -2.9174257111570654e-04  -3.0996929193493125e-04  -3.2633914141532561e-04  -3.4040327784056406e-04  -3.5172786262239645e-04  -3.5990474503653559e-04  -3.6456090233631135e-04  -3.6536615641813002e-04  -3.6203917173428812e-04  -3.5435162610151068e-04  -3.4213092837633794e-04  -3.2526173582275790e-04  -3.0368679037954627e-04  -2.7740754831035553e-04  -2.4648506109489207e-04  -2.1104151069414783e-04  -1.7126266904617348e-04  -1.2740140001754271e-04  -7.9782162638363283e-05  -2.8806176026519964e-05  2.5043051861372012e-05  8.1194673128011266e-05  1.3898655387671426e-04  1.9766359040194185e-04  2.5637909813993801e-04  3.1420055996625570e-04  3.7012049439259076e-04  4.2307343248958266e-04  4.7195921901539028e-04  5.1567290958709217e-04  5.5314060898929956e-04  5.8336023874040678e-04  6.0544534318266179e-04  6.1866969196582890e-04  6.2250970290038540e-04  6.1668161816217065e-04  6.0117013631540118e-04  5.7624571401309862e-04  5.4246813850104055e-04  5.0067520493907007e-04  4.5195619658596500e-04  3.9761142287669576e-04  3.3910009746004194e-04  2.7797993969831252e-04  2.1584251650612319e-04  1.5424853277663149e-04  9.4667055671945278e-05  3.8422017031439687e-05  -1.3351506866644520e-05  -5.9739696516533372e-05  -1.0007040814943323e-04  -1.3392160965737632e-04  -1.6111837777155728e-04  -1.8171930912934433e-04  -1.9599352217339290e-04  -2.0438971166025812e-04  -2.0749911430484276e-04  -2.0601462008590371e-04  -2.0068861318936078e-04  -1.9229221859735766e-04  -1.8157856362116371e-04  -1.6925215691124075e-04  -1.5594587656815590e-04  -1.4220620132277814e-04  -1.2848655934293981e-04  -1.1514780816316387e-04  -1.0246430220377944e-04  -9.0633197338098076e-05  -7.9784467036955029e-05  -6.9988430024877735e-05  -6.1258856925205195e-05  -5.3549254475173333e-05  -4.6744688206058261e-05  -4.0649002430152938e-05  -3.4979280213345852e-05  -2.9367419087324883e-05  -2.3401778273115626e-05  -1.6710699142183824e-05  -9.1869910311113159e-06  -1.4826772477886548e-06  4.0224174580206433e-06  1.6020138651921463e-06  1.1982527342988358e-05  1.8711149329626468e-07  -6.5926052257617997e-05  -1.3049097809401635e-04  -1.8385391936508234e-04  -2.2175333460311650e-04  -2.4356659671734615e-04  -2.4985498349364561e-04  -2.4233939035716776e-04  -2.2357528444817706e-04  -1.9669875631159506e-04  -1.6508273993777410e-04  -1.3200655207668043e-04  -1.0036632864688901e-04  -7.2464275679061166e-05  -4.9883519980454985e-05  -3.3444699418138301e-05  -2.3229713977276726e-05  -1.8658027959217488e-05  -1.8603530978285325e-05  -2.1544048246833187e-05  -2.5735973811149442e-05  -2.9402281101254169e-05  -3.0914424847196827e-05  -2.8941872098595575e-05  -2.2542286388994661e-05  -1.1174322936760190e-05  5.3674368588766039e-06  2.7075130397719024e-05  5.3871698041984248e-05  8.5736039386708610e-05  1.2277830421124269e-04  1.6525335899510049e-04  2.1352090762333337e-04  2.6797443171144153e-04  3.2896374545157372e-04  3.9672889598246541e-04  4.7135210940720413e-04  5.5272543554220506e-04  6.4052812291291229e-04  7.3420899446121398e-04  8.3297255703169396e-04  9.3577037342485066e-04  1.0413003393175454e-03  1.1480162046078278e-03  1.2541484883677231e-03  1.3577366307675131e-03  1.4566713164029586e-03  1.5487447210651255e-03  1.6317060755123398e-03  1.7033191805938121e-03  1.7614188195270613e-03  1.8039628762847809e-03  1.8290780063883176e-03  1.8350970298005957e-03  1.8205876088361534e-03  1.7843723510524731e-03  1.7255417064957880e-03  1.6434614699568468e-03  1.5377770785781194e-03  1.4084174131947225e-03  1.2556003451999944e-03  1.0798420766461412e-03  8.8197179238825468e-04  6.6315241107194306e-04  4.2490702939308630e-04  1.6915007299833081e-04  -1.0177915034579472e-04  -3.8508380193599969e-04  -6.7748224027007096e-04  -9.7519134483476104e-04  -1.2739260853952051e-03  -1.5689219065338541e-03  -1.8549855592972166e-03  -2.1265795872182375e-03  -2.3779435679115502e-03  -2.6032532329071031e-03  -2.7968152774479472e-03  -2.9532915397458529e-03  -3.0679425442483111e-03  -3.1368764817311552e-03  -3.1572863501308089e-03  -3.1276566169336664e-03  -3.0479199825820301e-03  -2.9195477858184131e-03  -2.7455611257249345e-03  -2.5304565672430238e-03  -2.2800472937473193e-03  -2.0012285521238170e-03  -1.7016831583091120e-03  -1.3895480324285809e-03  -1.0730655450388992e-03  -7.6024334411202508e-04  -4.5854369328922947e-04  -1.7461866267174427e-04  8.5897943888447499e-05  3.1853672110561322e-04  5.2007624811891686e-04  6.8856680329489343e-04  8.2329887957369651e-04  9.2472218290799615e-04  9.9432148280353960e-04  1.0344567153247818e-03  1.0481759208087434e-03  1.0390115236053438e-03  1.0107719343749589e-03  9.6734108689055772e-04  9.1249827929833216e-04  8.4976847074660520e-04  7.8231019897771726e-04  7.1284429463028525e-04  6.4362269133258401e-04  5.7643275032074400e-04  5.1262912214346680e-04  4.5318209011595642e-04  3.9872861436089212e-04  3.4961173660060326e-04  3.0589482561039306e-04  2.6734447710077342e-04  2.3338223103092355e-04  2.0302469005825804e-04  1.7483383521204327e-04  1.4694370912108400e-04  1.1720367917561519e-04  8.3661628119892928e-05  4.5479915898050554e-05  5.6311239571719661e-06  -2.4182452918992387e-05  -6.9547828657714826e-06  2.2394097922611598e-05  -9.3154154064159362e-05  -3.2795069854166578e-04  -5.6470109361804010e-04  -7.6448667454287922e-04  -9.0917754686062769e-04  -9.9335145418458356e-04  -1.0179652762148947e-03  -9.8885668505710911e-04  -9.1539973964885942e-04  -8.0930449873174715e-04  -6.8331351700041617e-04  -5.4993888814786149e-04  -4.2036440182642234e-04  -3.0360935873968410e-04  -2.0599691253206070e-04  -1.3092092508653521e-04  -7.8877663845141425e-05  -4.7718771528484200e-05  -3.3086142402308080e-05  -2.8994301800711748e-05  -2.8521867914259169e-05  -2.4555663912501481e-05  -1.0505015691662127e-05  1.9115968834095272e-05  6.8336688359987152e-05  1.3967022664314590e-04  2.3434073936091883e-04  3.5271883076676194e-04  4.9483063699924353e-04  6.6079397374441031e-04  8.5107074623827017e-04  1.0664939709219600e-03  1.3081009803106759e-03  1.5768528590457398e-03  1.8733295554242317e-03  2.1974659693682675e-03  2.5483565615780613e-03  2.9241255686166898e-03  3.3218475122912790e-03  3.7375061989209650e-03  4.1659903748952221e-03  4.6011316365917911e-03  5.0357916962243026e-03  5.4620025580314809e-03  5.8711572964836867e-03  6.2542430992060510e-03  6.6021035093889102e-03  6.9057137662287332e-03  7.1564514352077764e-03  7.3463458264631373e-03  7.4682914295340222e-03  7.5162153669570313e-03  7.4851929209269179e-03  7.3715113216725600e-03  7.1726857807331464e-03  6.8874359329664436e-03  6.5156337113196116e-03  6.0582344883654757e-03  5.5172033698732068e-03  4.8954472331691617e-03  4.1967616137170358e-03  3.4257982093669134e-03  2.5880565600415102e-03  1.6899003154454983e-03  7.3859574058821053e-04  -2.5763330992403729e-04  -1.2895413244518315e-03  -2.3467977622056912e-03  -3.4179375068925074e-03  -4.4903378312947367e-03  -5.5502364415486588e-03  -6.5828054049007368e-03  -7.5722944288044349e-03  -8.5022544041628532e-03  -9.3558484914392191e-03  -1.0116252950309816e-02  -1.0767142605457407e-02  -1.1293247716547638e-02  -1.1680960856486032e-02  -1.1918962880943880e-02  -1.1998831045019819e-02  -1.1915586868172330e-02  -1.1668140235706333e-02  -1.1259589502506256e-02  -1.0697344517737975e-02  -9.9930519088456213e-03  -9.1623164283895532e-03  -8.2242285277803386e-03  -7.2007238781217221e-03  -6.1158133652921068e-03  -4.9947300477045393e-03  -3.8630424442111515e-03  -2.7457807343517766e-03  -1.6666154705757331e-03  -6.4711911154975677e-04  2.9386843032453666e-04  1.1407564108616142e-03  1.8815919201597578e-03  2.5083111625009845e-03  3.0168430716207948e-03  3.4070545245960013e-03  3.6825297439678955e-03  3.8501845587525659e-03  3.9197293765586864e-03  3.9030109204915508e-03  3.8132780796897785e-03  3.6644281835711322e-03  3.4702931087864505e-03  3.2440190474409079e-03  2.9975805733270426e-03  2.7414513048519260e-03  2.4844326514437405e-03  2.2336216670607173e-03  1.9944801651608749e-03  1.7709532804654328e-03  1.5655789163739491e-03  1.3795365724003201e-03  1.2126047888428716e-03  1.0630376086500986e-03  9.2741740833649649e-04  8.0060817098382071e-04  6.7599581903279708e-04  5.4629335857752845e-04  4.0545348419284680e-04  2.5214658561250279e-04  9.7904302417431785e-05  -2.3385779514197868e-05  -1.9478790191286419e-05  2.2734983094717486e-05  -3.1560450211690603e-04  -7.8285523644617899e-04  -1.2419346324977563e-03  -1.6289225812604140e-03  -1.9099794454524922e-03  -2.0724125207608152e-03  -2.1168258473727268e-03  -2.0539019294537309e-03  -1.9016356673462013e-03  -1.6827825824320272e-03  -1.4222466080858968e-03  -1.1446012536432558e-03  -8.7193470865394476e-04  -6.2218032115807264e-04  -4.0800842937402246e-04  -2.3628462281182936e-04  -1.0805091909463357e-04  -1.8967179698727933e-05  3.9852059532910554e-05  8.0672490837549319e-05  1.1773328634397851e-04  1.6572669823862975e-04  2.3834299122748901e-04  3.4709202119898952e-04  5.0059558001991486e-04  7.0446180888022189e-04  9.6171758448025787e-04  1.2736289754809130e-03  1.6406389351992430e-03  2.0631375201921932e-03  2.5418599420974275e-03  3.0778476409864144e-03  3.6720485153756595e-03  4.3247199243438839e-03  5.0348088932611309e-03  5.7994340219407045e-03  6.6135230512148480e-03  7.4696068520374677e-03  8.3577506977287469e-03  9.2656089502509646e-03  1.0178602033520223e-02  1.1080219924517598e-02  1.1952450653670043e-02  1.2776319451387474e-02  1.3532509979587617e-02  1.4202027391818185e-02  1.4766856380371866e-02  1.5210568229530465e-02  1.5518834811589966e-02  1.5679819259772347e-02  1.5684425426186043e-02  1.5526402912836313e-02  1.5202317763612647e-02  1.4711410012332306e-02  1.4055366358435083e-02  1.3238039096206678e-02  1.2265143579363679e-02  1.1143961866733885e-02  9.8830764127399700e-03  8.4921510452102885e-03  6.9817705072180497e-03  5.3633430335774520e-03  3.6490665469125017e-03  1.8519526186051968e-03  -1.4099964850152943e-05  -1.9341949676819810e-03  -3.8923061850403939e-03  -5.8711403793363197e-03  -7.8520149958702847e-03  -9.8147720529431302e-03  -1.1737749745158035e-02  -1.3597834339950649e-02  -1.5370613367592779e-02  -1.7030648220088568e-02  -1.8551879038856828e-02  -1.9908168360943067e-02  -2.1073979321474295e-02  -2.2025172517235746e-02  -2.2739893954701933e-02  -2.3199511099636281e-02  -2.3389544015693195e-02  -2.3300529462388364e-02  -2.2928753676570542e-02  -2.2276791296953258e-02  -2.1353799828062032e-02  -2.0175535527583510e-02  -1.8764078326101927e-02  -1.7147277734942876e-02  -1.5357954112902377e-02  -1.3432907617303350e-02  -1.1411797384301587e-02  -9.3359547716770248e-03  -7.2471871354028638e-03  -5.1866147769022899e-03  -3.1935671008521366e-03  -1.3045494364019364e-03  4.4771663311754761e-04  2.0351757009685343e-03  3.4352294659103591e-03  4.6314044063884814e-03  5.6138451914527531e-03  6.3795697191569795e-03  6.9324218730682143e-03  7.2826758338099184e-03  7.4462809242553992e-03  7.4437821393968434e-03  7.2989986927695519e-03  7.0375795860219319e-03  6.6855722496356428e-03  6.2681341442100569e-03  5.8084892485831844e-03  5.3271875705258320e-03  4.8416743350202024e-03  4.3661240912387456e-03  3.9114524511498459e-03  3.4853945763510057e-03  3.0925432090372707e-03  2.7342798164265787e-03  2.4086045183747619e-03  2.1099767656659898e-03  1.8293830415761871e-03  1.5549984845987656e-03  1.2738788030449727e-03  9.7555003797222882e-04  6.5792327660239760e-04  3.3907868831274044e-04  6.9239469585470124e-05  -2.6052941658888222e-05  1.8250647781260896e-05  -6.5101753329952460e-04  -1.4132534926201050e-03  -2.1320182854171880e-03  -2.7287384319377639e-03  -3.1574198498105269e-03  -3.3990270355665699e-03  -3.4544409613356656e-03  -3.3401974272301229e-03  -3.0843395562554733e-03  -2.7223177705690176e-03  -2.2928733050511124e-03  -1.8341793579241701e-03  -1.3805140689047658e-03  -9.5967036767331761e-04  -5.9120489202627415e-04  -2.8553724740310087e-04  -4.3854596311719286e-05  1.4124839680252613e-04  2.8447292135455718e-04  4.0595933764111055e-04  5.2901445562888408e-04  6.7764562771964769e-04  8.7420960092619556e-04  1.1375285796523913e-03  1.4817819684931569e-03  1.9163305287429628e-03  2.4464002162017423e-03  3.0743214160331381e-03  3.8008765761820672e-03  4.6263162478167742e-03  5.5507584147928861e-03  6.5739207136602191e-03  7.6943506513807722e-03  8.9084342461667708e-03  1.0209456787551894e-02  1.1586899399835277e-02  1.3026047433572076e-02  1.4507914370621662e-02  1.6009458427577138e-02  1.7504070208415462e-02  1.8962312506453614e-02  2.0352882667238531e-02  2.1643746298777564e-02  2.2803366616635394e-02  2.3801937395377195e-02  2.4612522463180804e-02  2.5212013627316503e-02  2.5581840152109542e-02  2.5708390588062142e-02  2.5583140057929034e-02  2.5202504333275338e-02  2.4567466363226712e-02  2.3683034262341605e-02  2.2557598225708169e-02  2.1202249524793493e-02  1.9630118542737520e-02  1.7855776433784946e-02  1.5894732709798874e-02  1.3763047339696653e-02  1.1477066571959542e-02  9.0532805088058936e-03  6.5082950225939908e-03  3.8589058854800054e-03  1.1222583577005917e-03  -1.6839259980000565e-03  -4.5410749709106947e-03  -7.4294669718403279e-03  -1.0327930234668626e-02  -1.3213566609487311e-02  -1.6061526851957973e-02  -1.8844866967736941e-02  -2.1534515465938934e-02  -2.4099380609731894e-02  -2.6506625519379517e-02  -2.8722131266200702e-02  -3.0711161141603181e-02  -3.2439225819292677e-02  -3.3873132157050602e-02  -3.4982181131394445e-02  -3.5739459808465449e-02  -3.6123152356576545e-02  -3.6117783566506516e-02  -3.5715298796058267e-02  -3.4915888849709739e-02  -3.3728481361065904e-02  -3.2170846549888249e-02  -3.0269298441009496e-02  -2.8058011088344863e-02  -2.5578006742846555e-02  -2.2875901553451403e-02  -2.0002510620121507e-02  -1.7011414152078120e-02  -1.3957569646544560e-02  -1.0896024656377115e-02  -7.8807471917024287e-03  -4.9635541878569394e-03  -2.1930920267391263e-03  3.8618583629854251e-04  2.7350853746778373e-03  4.8207885442574545e-03  6.6179743381722172e-03  8.1098440760954352e-03  9.2889079289634226e-03  1.0157374603038061e-02  1.0727008566463818e-02  1.1018379725361245e-02  1.1059518233989287e-02  1.0884081623436421e-02  1.0529220323687397e-02  1.0033370804755694e-02  9.4342039192090513e-03  8.7669106032895287e-03  8.0629292594030094e-03  7.3491255145160988e-03  6.6473460364739204e-03  5.9742049941168638e-03  5.3409448367975612e-03  4.7532559010996719e-03  4.2110429500314996e-03  3.7082756746960465e-03  3.2332256851306932e-03  2.7695663043643703e-03  2.2989150901965402e-03  1.8057260028397639e-03  1.2849282797654977e-03  7.5542003777571835e-04  2.7314687783477199e-04  -2.7157529045943966e-05  1.1132415319578243e-05  -1.0789424104109733e-03  -2.1938068503691223e-03  -3.2038727919539143e-03  -4.0236719806806577e-03  -4.5998989212411214e-03  -4.9102112436820678e-03  -4.9579628441787128e-03  -4.7675080092118146e-03  -4.3787671445208315e-03  -3.8414983114493425e-03  -3.2095461178754648e-03  -2.5355227864153149e-03  -1.8662825679403607e-03  -1.2394282640990891e-03  -6.8095181953999929e-04  -2.0401313971257898e-04  1.9119128408359037e-04  5.1653589173500738e-04  7.9412762261697257e-04  1.0536394857654831e-03  1.3290248100090950e-03  1.6549550110385612e-03  2.0634540971782669e-03  2.5812551484756061e-03  3.2283101160028760e-03  4.0176292792141379e-03  4.9562741366332673e-03  6.0470046251194206e-03  7.2899222192005439e-03  8.6835257323949061e-03  1.0224872063823441e-02  1.1908885175671289e-02  1.3727133909339408e-02  1.5666507844824807e-02  1.7708161196677667e-02  1.9826946109198131e-02  2.1991410671279823e-02  2.4164345968465350e-02  2.6303826951562838e-02  2.8364672520217973e-02  3.0300226321016758e-02  3.2064328098691579e-02  3.3613315626975622e-02  3.4907885843449837e-02  3.5914655547474535e-02  3.6607297695984746e-02  3.6967181520109541e-02  3.6983503676468792e-02  3.6652952650386747e-02  3.5978991589669398e-02  3.4970870709839029e-02  3.3642488587645528e-02  3.2011214219574945e-02  3.0096764867946706e-02  2.7920208975542912e-02  2.5503140435844528e-02  2.2867046178033833e-02  2.0032872018356879e-02  1.7020776994691043e-02  1.3850058922017010e-02  1.0539228888907161e-02  7.1062101985801202e-03  3.5686390220730987e-03  -5.5757438153273641e-05  -3.7487264126772088e-03  -7.4910203295247601e-03  -1.1261916344356714e-02  -1.5038746122844162e-02  -1.8796464646071709e-02  -2.2507285976864647e-02  -2.6140419523901910e-02  -2.9661943020204654e-02  -3.3034849321752380e-02  -3.6219304528936506e-02  -3.9173149914775045e-02  -4.1852670925514791e-02  -4.4213643739176370e-02  -4.6212647230067821e-02  -4.7808605658961896e-02  -4.8964497984641649e-02  -4.9649139362625772e-02  -4.9838918267118455e-02  -4.9519353483373101e-02  -4.8686333855302702e-02  -4.7346915732344903e-02  -4.5519586944918686e-02  -4.3233952778297460e-02  -4.0529859317702720e-02  -3.7456031706847040e-02  -3.4068358468366831e-02  -3.0427988625934207e-02  -2.6599419222141991e-02  -2.2648731319356654e-02  -1.8642087088315853e-02  -1.4644534294158122e-02  -1.0719091550739546e-02  -6.9260216676009052e-03  -3.3221548343604699e-03  3.9887265740838988e-05  3.1126869358248772e-03  5.8552980930274860e-03  8.2347429260310016e-03  1.0227590072169050e-02  1.1821380869388000e-02  1.3015627825479433e-02  1.3822129669077868e-02  1.4264432373513752e-02  1.4376399514235692e-02  1.4200007213834034e-02  1.3782609611030401e-02  1.3173998495762522e-02  1.2423586898625169e-02  1.1577981710929507e-02  1.0679094231874830e-02  9.7628005149935238e-03  8.8580439300272942e-03  7.9862079296446342e-03  7.1606066326121301e-03  6.3860483272570271e-03  5.6586085757064390e-03  4.9659491324784968e-03  4.2887219774930463e-03  3.6036732961174725e-03  2.8893147134100650e-03  2.1343932210353017e-03  1.3517182468793069e-03  5.9104848719093695e-04  -2.3225040386818464e-05  2.7280733095032750e-06  -1.5818081613425011e-03  -3.1007118566887945e-03  -4.4297293300632453e-03  -5.4803676296630317e-03  -6.1962429862315880e-03  -6.5555973843329247e-03  -6.5676949252317591e-03  -6.2677655379789823e-03  -5.7102096437532833e-03  -4.9610895514467573e-03  -4.0906194716947208e-03  -3.1663399685994838e-03  -2.2474367823945821e-03  -1.3804476663859977e-03  -5.9642621572136953e-04  9.0466527614593980e-05  6.8300132564649407e-04  1.1996045309392237e-03  1.6718293777418351e-03  2.1407086830400727e-03  2.6522769884306497e-03  3.2527606101955381e-03  3.9841174481089854e-03  4.8806506654733598e-03  5.9672353648148732e-03  7.2592919427643815e-03  8.7641394366112148e-03  1.0482967229465718e-02  1.2412550122708890e-02  1.4546050827863751e-02  1.6872699110312830e-02  1.9376599747120981e-02  2.2035209717928314e-02  2.4818061607415218e-02  2.7686152916942944e-02  3.0592197274572866e-02  3.3481746979280760e-02  3.6295080559656252e-02  3.8969682989872606e-02  4.1443096483702660e-02  4