<?xml version="1.0"?>
<VTKFile type="UnstructuredGrid"  version="0.1"  >
<UnstructuredGrid>
<Piece  NumberOfPoints="1089" NumberOfCells="1024">
<Points>
<DataArray  type="Float64"  NumberOfComponents="3"  format="ascii">0 0 0  0.03125 0 0  0.0625 0 0  0.09375 0 0  0.125 0 0  0.15625 0 0  0.1875 0 0  0.21875 0 0  0.25 0 0  0.28125 0 0  0.3125 0 0  0.34375 0 0  0.375 0 0  0.40625 0 0  0.4375 0 0  0.46875 0 0  0.5 0 0  0.53125 0 0  0.5625 0 0  0.59375 0 0  0.625 0 0  0.65625 0 0  0.6875 0 0  0.71875 0 0  0.75 0 0  0.78125 0 0  0.8125 0 0  0.84375 0 0  0.875 0 0  0.90625 0 0  0.9375 0 0  0.96875 0 0  1 0 0  0 0.03125 0  0.03125 0.03125 0  0.0625 0.03125 0  0.09375 0.03125 0  0.125 0.03125 0  0.15625 0.03125 0  0.1875 0.03125 0  0.21875 0.03125 0  0.25 0.03125 0  0.28125 0.03125 0  0.3125 0.03125 0  0.34375 0.03125 0  0.375 0.03125 0  0.40625 0.03125 0  0.4375 0.03125 0  0.46875 0.03125 0  0.5 0.03125 0  0.53125 0.03125 0  0.5625 0.03125 0  0.59375 0.03125 0  0.625 0.03125 0  0.65625 0.03125 0  0.6875 0.03125 0  0.71875 0.03125 0  0.75 0.03125 0  0.78125 0.03125 0  0.8125 0.03125 0  0.84375 0.03125 0  0.875 0.03125 0  0.90625 0.03125 0  0.9375 0.03125 0  0.96875 0.03125 0  1 0.03125 0  0 0.0625 0  0.03125 0.0625 0  0.0625 0.0625 0  0.09375 0.0625 0  0.125 0.0625 0  0.15625 0.0625 0  0.1875 0.0625 0  0.21875 0.0625 0  0.25 0.0625 0  0.28125 0.0625 0  0.3125 0.0625 0  0.34375 0.0625 0  0.375 0.0625 0  0.40625 0.0625 0  0.4375 0.0625 0  0.46875 0.0625 0  0.5 0.0625 0  0.53125 0.0625 0  0.5625 0.0625 0  0.59375 0.0625 0  0.625 0.0625 0  0.65625 0.0625 0  0.6875 0.0625 0  0.71875 0.0625 0  0.75 0.0625 0  0.78125 0.0625 0  0.8125 0.0625 0  0.84375 0.0625 0  0.875 0.0625 0  0.90625 0.0625 0  0.9375 0.0625 0  0.96875 0.0625 0  1 0.0625 0  0 0.09375 0  0.03125 0.09375 0  0.0625 0.09375 0  0.09375 0.09375 0  0.125 0.09375 0  0.15625 0.09375 0  0.1875 0.09375 0  0.21875 0.09375 0  0.25 0.09375 0  0.28125 0.09375 0  0.3125 0.09375 0  0.34375 0.09375 0  0.375 0.09375 0  0.40625 0.09375 0  0.4375 0.09375 0  0.46875 0.09375 0  0.5 0.09375 0  0.53125 0.09375 0  0.5625 0.09375 0  0.59375 0.09375 0  0.625 0.09375 0  0.65625 0.09375 0  0.6875 0.09375 0  0.71875 0.09375 0  0.75 0.09375 0  0.78125 0.09375 0  0.8125 0.09375 0  0.84375 0.09375 0  0.875 0.09375 0  0.90625 0.09375 0  0.9375 0.09375 0  0.96875 0.09375 0  1 0.09375 0  0 0.125 0  0.03125 0.125 0  0.0625 0.125 0  0.09375 0.125 0  0.125 0.125 0  0.15625 0.125 0  0.1875 0.125 0  0.21875 0.125 0  0.25 0.125 0  0.28125 0.125 0  0.3125 0.125 0  0.34375 0.125 0  0.375 0.125 0  0.40625 0.125 0  0.4375 0.125 0  0.46875 0.125 0  0.5 0.125 0  0.53125 0.125 0  0.5625 0.125 0  0.59375 0.125 0  0.625 0.125 0  0.65625 0.125 0  0.6875 0.125 0  0.71875 0.125 0  0.75 0.125 0  0.78125 0.125 0  0.8125 0.125 0  0.84375 0.125 0  0.875 0.125 0  0.90625 0.125 0  0.9375 0.125 0  0.96875 0.125 0  1 0.125 0  0 0.15625 0  0.03125 0.15625 0  0.0625 0.15625 0  0.09375 0.15625 0  0.125 0.15625 0  0.15625 0.15625 0  0.1875 0.15625 0  0.21875 0.15625 0  0.25 0.15625 0  0.28125 0.15625 0  0.3125 0.15625 0  0.34375 0.15625 0  0.375 0.15625 0  0.40625 0.15625 0  0.4375 0.15625 0  0.46875 0.15625 0  0.5 0.15625 0  0.53125 0.15625 0  0.5625 0.15625 0  0.59375 0.15625 0  0.625 0.15625 0  0.65625 0.15625 0  0.6875 0.15625 0  0.71875 0.15625 0  0.75 0.15625 0  0.78125 0.15625 0  0.8125 0.15625 0  0.84375 0.15625 0  0.875 0.15625 0  0.90625 0.15625 0  0.9375 0.15625 0  0.96875 0.15625 0  1 0.15625 0  0 0.1875 0  0.03125 0.1875 0  0.0625 0.1875 0  0.09375 0.1875 0  0.125 0.1875 0  0.15625 0.1875 0  0.1875 0.1875 0  0.21875 0.1875 0  0.25 0.1875 0  0.28125 0.1875 0  0.3125 0.1875 0  0.34375 0.1875 0  0.375 0.1875 0  0.40625 0.1875 0  0.4375 0.1875 0  0.46875 0.1875 0  0.5 0.1875 0  0.53125 0.1875 0  0.5625 0.1875 0  0.59375 0.1875 0  0.625 0.1875 0  0.65625 0.1875 0  0.6875 0.1875 0  0.71875 0.1875 0  0.75 0.1875 0  0.78125 0.1875 0  0.8125 0.1875 0  0.84375 0.1875 0  0.875 0.1875 0  0.90625 0.1875 0  0.9375 0.1875 0  0.96875 0.1875 0  1 0.1875 0  0 0.21875 0  0.03125 0.21875 0  0.0625 0.21875 0  0.09375 0.21875 0  0.125 0.21875 0  0.15625 0.21875 0  0.1875 0.21875 0  0.21875 0.21875 0  0.25 0.21875 0  0.28125 0.21875 0  0.3125 0.21875 0  0.34375 0.21875 0  0.375 0.21875 0  0.40625 0.21875 0  0.4375 0.21875 0  0.46875 0.21875 0  0.5 0.21875 0  0.53125 0.21875 0  0.5625 0.21875 0  0.59375 0.21875 0  0.625 0.21875 0  0.65625 0.21875 0  0.6875 0.21875 0  0.71875 0.21875 0  0.75 0.21875 0  0.78125 0.21875 0  0.8125 0.21875 0  0.84375 0.21875 0  0.875 0.21875 0  0.90625 0.21875 0  0.9375 0.21875 0  0.96875 0.21875 0  1 0.21875 0  0 0.25 0  0.03125 0.25 0  0.0625 0.25 0  0.09375 0.25 0  0.125 0.25 0  0.15625 0.25 0  0.1875 0.25 0  0.21875 0.25 0  0.25 0.25 0  0.28125 0.25 0  0.3125 0.25 0  0.34375 0.25 0  0.375 0.25 0  0.40625 0.25 0  0.4375 0.25 0  0.46875 0.25 0  0.5 0.25 0  0.53125 0.25 0  0.5625 0.25 0  0.59375 0.25 0  0.625 0.25 0  0.65625 0.25 0  0.6875 0.25 0  0.71875 0.25 0  0.75 0.25 0  0.78125 0.25 0  0.8125 0.25 0  0.84375 0.25 0  0.875 0.25 0  0.90625 0.25 0  0.9375 0.25 0  0.96875 0.25 0  1 0.25 0  0 0.28125 0  0.03125 0.28125 0  0.0625 0.28125 0  0.09375 0.28125 0  0.125 0.28125 0  0.15625 0.28125 0  0.1875 0.28125 0  0.21875 0.28125 0  0.25 0.28125 0  0.28125 0.28125 0  0.3125 0.28125 0  0.34375 0.28125 0  0.375 0.28125 0  0.40625 0.28125 0  0.4375 0.28125 0  0.46875 0.28125 0  0.5 0.28125 0  0.53125 0.28125 0  0.5625 0.28125 0  0.59375 0.28125 0  0.625 0.28125 0  0.65625 0.28125 0  0.6875 0.28125 0  0.71875 0.28125 0  0.75 0.28125 0  0.78125 0.28125 0  0.8125 0.28125 0  0.84375 0.28125 0  0.875 0.28125 0  0.90625 0.28125 0  0.9375 0.28125 0  0.96875 0.28125 0  1 0.28125 0  0 0.3125 0  0.03125 0.3125 0  0.0625 0.3125 0  0.09375 0.3125 0  0.125 0.3125 0  0.15625 0.3125 0  0.1875 0.3125 0  0.21875 0.3125 0  0.25 0.3125 0  0.28125 0.3125 0  0.3125 0.3125 0  0.34375 0.3125 0  0.375 0.3125 0  0.40625 0.3125 0  0.4375 0.3125 0  0.46875 0.3125 0  0.5 0.3125 0  0.53125 0.3125 0  0.5625 0.3125 0  0.59375 0.3125 0  0.625 0.3125 0  0.65625 0.3125 0  0.6875 0.3125 0  0.71875 0.3125 0  0.75 0.3125 0  0.78125 0.3125 0  0.8125 0.3125 0  0.84375 0.3125 0  0.875 0.3125 0  0.90625 0.3125 0  0.9375 0.3125 0  0.96875 0.3125 0  1 0.3125 0  0 0.34375 0  0.03125 0.34375 0  0.0625 0.34375 0  0.09375 0.34375 0  0.125 0.34375 0  0.15625 0.34375 0  0.1875 0.34375 0  0.21875 0.34375 0  0.25 0.34375 0  0.28125 0.34375 0  0.3125 0.34375 0  0.34375 0.34375 0  0.375 0.34375 0  0.40625 0.34375 0  0.4375 0.34375 0  0.46875 0.34375 0  0.5 0.34375 0  0.53125 0.34375 0  0.5625 0.34375 0  0.59375 0.34375 0  0.625 0.34375 0  0.65625 0.34375 0  0.6875 0.34375 0  0.71875 0.34375 0  0.75 0.34375 0  0.78125 0.34375 0  0.8125 0.34375 0  0.84375 0.34375 0  0.875 0.34375 0  0.90625 0.34375 0  0.9375 0.34375 0  0.96875 0.34375 0  1 0.34375 0  0 0.375 0  0.03125 0.375 0  0.0625 0.375 0  0.09375 0.375 0  0.125 0.375 0  0.15625 0.375 0  0.1875 0.375 0  0.21875 0.375 0  0.25 0.375 0  0.28125 0.375 0  0.3125 0.375 0  0.34375 0.375 0  0.375 0.375 0  0.40625 0.375 0  0.4375 0.375 0  0.46875 0.375 0  0.5 0.375 0  0.53125 0.375 0  0.5625 0.375 0  0.59375 0.375 0  0.625 0.375 0  0.65625 0.375 0  0.6875 0.375 0  0.71875 0.375 0  0.75 0.375 0  0.78125 0.375 0  0.8125 0.375 0  0.84375 0.375 0  0.875 0.375 0  0.90625 0.375 0  0.9375 0.375 0  0.96875 0.375 0  1 0.375 0  0 0.40625 0  0.03125 0.40625 0  0.0625 0.40625 0  0.09375 0.40625 0  0.125 0.40625 0  0.15625 0.40625 0  0.1875 0.40625 0  0.21875 0.40625 0  0.25 0.40625 0  0.28125 0.40625 0  0.3125 0.40625 0  0.34375 0.40625 0  0.375 0.40625 0  0.40625 0.40625 0  0.4375 0.40625 0  0.46875 0.40625 0  0.5 0.40625 0  0.53125 0.40625 0  0.5625 0.40625 0  0.59375 0.40625 0  0.625 0.40625 0  0.65625 0.40625 0  0.6875 0.40625 0  0.71875 0.40625 0  0.75 0.40625 0  0.78125 0.40625 0  0.8125 0.40625 0  0.84375 0.40625 0  0.875 0.40625 0  0.90625 0.40625 0  0.9375 0.40625 0  0.96875 0.40625 0  1 0.40625 0  0 0.4375 0  0.03125 0.4375 0  0.0625 0.4375 0  0.09375 0.4375 0  0.125 0.4375 0  0.15625 0.4375 0  0.1875 0.4375 0  0.21875 0.4375 0  0.25 0.4375 0  0.28125 0.4375 0  0.3125 0.4375 0  0.34375 0.4375 0  0.375 0.4375 0  0.40625 0.4375 0  0.4375 0.4375 0  0.46875 0.4375 0  0.5 0.4375 0  0.53125 0.4375 0  0.5625 0.4375 0  0.59375 0.4375 0  0.625 0.4375 0  0.65625 0.4375 0  0.6875 0.4375 0  0.71875 0.4375 0  0.75 0.4375 0  0.78125 0.4375 0  0.8125 0.4375 0  0.84375 0.4375 0  0.875 0.4375 0  0.90625 0.4375 0  0.9375 0.4375 0  0.96875 0.4375 0  1 0.4375 0  0 0.46875 0  0.03125 0.46875 0  0.0625 0.46875 0  0.09375 0.46875 0  0.125 0.46875 0  0.15625 0.46875 0  0.1875 0.46875 0  0.21875 0.46875 0  0.25 0.46875 0  0.28125 0.46875 0  0.3125 0.46875 0  0.34375 0.46875 0  0.375 0.46875 0  0.40625 0.46875 0  0.4375 0.46875 0  0.46875 0.46875 0  0.5 0.46875 0  0.53125 0.46875 0  0.5625 0.46875 0  0.59375 0.46875 0  0.625 0.46875 0  0.65625 0.46875 0  0.6875 0.46875 0  0.71875 0.46875 0  0.75 0.46875 0  0.78125 0.46875 0  0.8125 0.46875 0  0.84375 0.46875 0  0.875 0.46875 0  0.90625 0.46875 0  0.9375 0.46875 0  0.96875 0.46875 0  1 0.46875 0  0 0.5 0  0.03125 0.5 0  0.0625 0.5 0  0.09375 0.5 0  0.125 0.5 0  0.15625 0.5 0  0.1875 0.5 0  0.21875 0.5 0  0.25 0.5 0  0.28125 0.5 0  0.3125 0.5 0  0.34375 0.5 0  0.375 0.5 0  0.40625 0.5 0  0.4375 0.5 0  0.46875 0.5 0  0.5 0.5 0  0.53125 0.5 0  0.5625 0.5 0  0.59375 0.5 0  0.625 0.5 0  0.65625 0.5 0  0.6875 0.5 0  0.71875 0.5 0  0.75 0.5 0  0.78125 0.5 0  0.8125 0.5 0  0.84375 0.5 0  0.875 0.5 0  0.90625 0.5 0  0.9375 0.5 0  0.96875 0.5 0  1 0.5 0  0 0.53125 0  0.03125 0.53125 0  0.0625 0.53125 0  0.09375 0.53125 0  0.125 0.53125 0  0.15625 0.53125 0  0.1875 0.53125 0  0.21875 0.53125 0  0.25 0.53125 0  0.28125 0.53125 0  0.3125 0.53125 0  0.34375 0.53125 0  0.375 0.53125 0  0.40625 0.53125 0  0.4375 0.53125 0  0.46875 0.53125 0  0.5 0.53125 0  0.53125 0.53125 0  0.5625 0.53125 0  0.59375 0.53125 0  0.625 0.53125 0  0.65625 0.53125 0  0.6875 0.53125 0  0.71875 0.53125 0  0.75 0.53125 0  0.78125 0.531
[...]
<PointData  Scalars="u_sol"> 
<DataArray  type="Float64"  Name="u_sol"  format="ascii">-1.5271217022090382e-07  7.6483294353506969e-07  3.3797724415046450e-06  7.4939264416180995e-06  1.2908309955116082e-05  1.9413022263034673e-05  2.6791335545167865e-05  3.4820224613817138e-05  4.3272113119250012e-05  5.1916580863208914e-05  6.0522394157604749e-05  6.8859789275436457e-05  7.6703056836977725e-05  8.3833445309532706e-05  9.0042411899544193e-05  9.5135248633420401e-05  9.8935113930090338e-05  1.0128750180613279e-04  1.0206518302049923e-04  1.0117365469717736e-04  9.8557137355753709e-05  9.4205160733982842e-05  8.8159782712485274e-05  8.0523487372295490e-05  7.1467815574919745e-05  6.1242767466729918e-05  5.0187085648389950e-05  3.8739279726224331e-05  2.7450207998435546e-05  1.6994460119100698e-05  8.1911743755761428e-06  1.9950066950035014e-06  -3.9647316520025230e-07  -9.1860550542142272e-06  4.6006778847411762e-05  2.0330244837628558e-04  4.5077958471882333e-04  7.7646895777524517e-04  1.1677444041491216e-03  1.6115692073101150e-03  2.0945278170822418e-03  2.6029309231730157e-03  3.1229181491173900e-03  3.6405801833146894e-03  4.1420961357033987e-03  4.6138889949076797e-03  5.0428002819462624e-03  5.4162856001786185e-03  5.7226327540528350e-03  5.9512042591117233e-03  6.0927061765970042e-03  6.1394853363646081e-03  6.0858571458850905e-03  5.9284663278635933e-03  5.6666830746334032e-03  5.3030372887879701e-03  4.8436936696474153e-03  4.2989708794530894e-03  3.6839071103207397e-03  3.0188786844771781e-03  2.3302631929860980e-03  1.6511961187894927e-03  1.0222567089992738e-03  4.9271507910378951e-04  1.2000431958493496e-04  -2.3848643051628882e-05  -1.6465307143935129e-05  8.2463662221203817e-05  3.6440420677513161e-04  8.0798815695071809e-04  1.3917615882855577e-03  2.0930930606938695e-03  2.8886152525233267e-03  3.7542818111519715e-03  4.6655556895715388e-03  5.5975932176441914e-03  6.5254630124788682e-03  7.4243921799146562e-03  8.2700449596054878e-03  9.0388357785812536e-03  9.7082797597302251e-03  1.0257383683163410e-02  1.0667080667040628e-02  1.0920712033206253e-02  1.1004560056678726e-02  1.0908435538348891e-02  1.0626324399760358e-02  1.0157097759796143e-02  9.5052902783041258e-03  8.6819517125931080e-03  7.7055774845319527e-03  6.6031224152852865e-03  5.4111095232885860e-03  4.1768186430334499e-03  2.9596426212036230e-03  1.8323166982319591e-03  8.8315370962209635e-04  2.1509846141248533e-04  -4.2746842895721923e-05  -2.2112825080812264e-05  1.1074828612606078e-04  4.8939301476353921e-04  1.0851240109743068e-03  1.8691287590320465e-03  2.8110133514094994e-03  3.8793955939575185e-03  5.0419813582614371e-03  6.2658175157037435e-03  7.5175391443086294e-03  8.7636635241447897e-03  9.9709207846175596e-03  1.1106628123413200e-02  1.2139110235894401e-02  1.3038170046316371e-02  1.3775613767074257e-02  1.4325834672954835e-02  1.4666460244308278e-02  1.4779067646927694e-02  1.4649972839194933e-02  1.4271098945594477e-02  1.3640929886213975e-02  1.2765555688488077e-02  1.1659816123745148e-02  1.0348550454464485e-02  8.8679588756397521e-03  7.2670916249298802e-03  5.6094452899465687e-03  3.9747841786746518e-03  2.4607913409153848e-03  1.1860705255184983e-03  2.8887598145946027e-04  -5.7408763885424848e-05  -2.6243714586266237e-05  1.3143713670261910e-04  5.8081635598438656e-04  1.2878356449236373e-03  2.2183000301840548e-03  3.3361377282683851e-03  4.6041040491320000e-03  5.9838720105115451e-03  7.4363325226478837e-03  8.9218877754477354e-03  1.0400800154990442e-02  1.1833584658833317e-02  1.3181453022645052e-02  1.4406812689898274e-02  1.5473825480293297e-02  1.6349030735235904e-02  1.7002038146839989e-02  1.7406295793745578e-02  1.7539939279565986e-02  1.7386728252872595e-02  1.6937077001307865e-02  1.6189186228417918e-02  1.5150283639997191e-02  1.3837981223389619e-02  1.2281758460018810e-02  1.0524578097611080e-02  8.6246534399117194e-03  6.6573428605094477e-03  4.7173114161141016e-03  2.9204903051792894e-03  1.4076395793725146e-03  3.4284069445339395e-04  -6.8133253495456132e-05  -2.8975025048315648e-05  1.4511643610517431e-04  6.4126472396337938e-04  1.4218669250889674e-03  2.4491692269855243e-03  3.6833456804640746e-03  5.0832753603475408e-03  6.6066424105714729e-03  8.2102674701808789e-03  9.8504315945974422e-03  1.1483261485405592e-02  1.3065162746123777e-02  1.4553310231180706e-02  1.5906198945772148e-02  1.7084260857617106e-02  1.8050552896227395e-02  1.8771521888012049e-02  1.9217852525334748e-02  1.9365404878952320e-02  1.9196248386242790e-02  1.8699799704380019e-02  1.7874072276901676e-02  1.6727046034226770e-02  1.5278165931980383e-02  1.3559979528999174e-02  1.1619920920837154e-02  9.5222619597181233e-03  7.3502039378261479e-03  5.2082641697743922e-03  3.2244393714956328e-03  1.5541391676344460e-03  3.7852170237262110e-04  -7.5224195119985961e-05  -3.0423285299093564e-05  1.5236979883972632e-04  6.7331709220746550e-04  1.4929361704501044e-03  2.5715861681513252e-03  3.8674505122670748e-03  5.3373529278215879e-03  6.9368624832276899e-03  8.6206415818962500e-03  1.0342786073908981e-02  1.2057229740663859e-02  1.3718199205977232e-02  1.5280728794093828e-02  1.6701238965098449e-02  1.7938183956716123e-02  1.8952774171814037e-02  1.9709779347258646e-02  2.0178418907066280e-02  2.0333346334659642e-02  2.0155734843162326e-02  1.9634472102232584e-02  1.8767472262162316e-02  1.7563114116629381e-02  1.6041814542936531e-02  1.4237747931344091e-02  1.2200719284967645e-02  9.9982129667852901e-03  7.7175889307638792e-03  5.4685885891445855e-03  3.3856063225839394e-03  1.6318195837485220e-03  3.9744131691204061e-04  -7.8984119000988400e-05  -3.0705163727238281e-05  1.5378153857434706e-04  6.7955552235572278e-04  1.5067685483133963e-03  2.5954124676987041e-03  3.9032832664213980e-03  5.3868046310678857e-03  7.0011339675692223e-03  8.7005136169364776e-03  1.0438614118088595e-02  1.2168942440050184e-02  1.3845301107794418e-02  1.5422307830374720e-02  1.6855979295483142e-02  1.8104384811594557e-02  1.9128375388366332e-02  1.9892394346912312e-02  2.0365375922260329e-02  2.0521738756167088e-02  2.0342481626679197e-02  1.9816389244803796e-02  1.8941356435305555e-02  1.7725839624838233e-02  1.6190444860778263e-02  1.4369663171497037e-02  1.2313761020533590e-02  1.0090848034835452e-02  7.7890935827150155e-03  5.5192558566364283e-03  3.4169744247879606e-03  1.6469386005523287e-03  4.0112365760195127e-04  -7.9715916272474904e-05  -2.9937291323941372e-05  1.4993578157052062e-04  6.6256124884708171e-04  1.4690873915671580e-03  2.5305065800673189e-03  3.8056702336785298e-03  5.2520917912378673e-03  6.8260500784990052e-03  8.4829317407458561e-03  1.0177565921324150e-02  1.1864622284765826e-02  1.3499058660740094e-02  1.5036627677178206e-02  1.6434445955080472e-02  1.7651631404126397e-02  1.8650014070006056e-02  1.9394926472826333e-02  1.9856079737364054e-02  2.0008532240878112e-02  1.9833757941152708e-02  1.9320822019260119e-02  1.8467671945957474e-02  1.7282552671618868e-02  1.5785554932266625e-02  1.4010307211924056e-02  1.2005818919865635e-02  9.8384964080849204e-03  7.5943041158248103e-03  5.3812304029123596e-03  3.3315227676303382e-03  1.6057519710705535e-03  3.9109235849147452e-04  -7.7722380880447433e-05  -2.8236309070640671e-05  1.4141670415986039e-04  6.2491572728308117e-04  1.3856165239014625e-03  2.3867278052017511e-03  3.5894389764937261e-03  4.9536774845151720e-03  6.4382063118416594e-03  8.0009469532080057e-03  9.5992950782915719e-03  1.1190495939897547e-02  1.2732066583505836e-02  1.4182273694213090e-02  1.5500670450606529e-02  1.6648697610017596e-02  1.7590353966444316e-02  1.8292941783135393e-02  1.8727893142699747e-02  1.8871683558365028e-02  1.8706839602074771e-02  1.8223047750045792e-02  1.7418372093808362e-02  1.6300589122127632e-02  1.4888648055244811e-02  1.3214266672674826e-02  1.1323669763645976e-02  9.2794905968949393e-03  7.1628092713699257e-03  5.0754784439376189e-03  3.1422315444117077e-03  1.5145159840260734e-03  3.6887118201811472e-04  -7.3306332561183662e-05  -2.5718855227987990e-05  1.2880846902827732e-04  5.6920035321883782e-04  1.2620796359647701e-03  2.1739352140893835e-03  3.2694167131004570e-03  4.5120243121138876e-03  5.8641975461363330e-03  7.2876094870840810e-03  8.7434542632715065e-03  1.0192788997529149e-02  1.1596918373899544e-02  1.2917829881132827e-02  1.4118682802115892e-02  1.5164355707951840e-02  1.6022057139704074e-02  1.6662004580463744e-02  1.7058177130867679e-02  1.7189147666167665e-02  1.7039000628199207e-02  1.6598342010767819e-02  1.5865408504407878e-02  1.4847283274118019e-02  1.3561226095145925e-02  1.2036126901628931e-02  1.0314089241637153e-02  8.4521622169607229e-03  6.5241970999779233e-03  4.6229657060966167e-03  2.8620806466859248e-03  1.3794867820510572e-03  3.3598385625203432e-04  -6.6770584098665783e-05  -2.2501568740006015e-05  1.1269524229054349e-04  4.9799653739012785e-04  1.1042004521976331e-03  1.9019879360002900e-03  2.8604307494531026e-03  3.9475949963290102e-03  5.1306188172882371e-03  6.3759697706958982e-03  7.6496963852014507e-03  8.9177273233884656e-03  1.0146207841248849e-02  1.1301880584885909e-02  1.2352513409668527e-02  1.3267378385338860e-02  1.4017786084390443e-02  1.4577679618200785e-02  1.4924293157012252e-02  1.5038879989107754e-02  1.4907515502738021e-02  1.4521980828735195e-02  1.3880733238136593e-02  1.2989969833259944e-02  1.1864791290737656e-02  1.0530473578533442e-02  9.0238533282848386e-03  7.3948431175279118e-03  5.7080558327083173e-03  4.0446580441430430e-03  2.5040500455245315e-03  1.2069205469068852e-03  2.9395411850003544e-04  -5.8417950157284808e-05  -1.8701088326905647e-05  9.3661188938126317e-05  4.1388568562354520e-04  9.1770268617792931e-04  1.5807450815127717e-03  2.3773083633673495e-03  3.2808522205642122e-03  4.2640651105801614e-03  5.2990781693977550e-03  6.3576742774746949e-03  7.4115366952486120e-03  8.4325286950814003e-03  9.3930100417329594e-03  1.0266192553079303e-02  1.1026538201456439e-02  1.1650203161053217e-02  1.2115531511949494e-02  1.2403602537104182e-02  1.2498835813853972e-02  1.2389658574150149e-02  1.2069240102166909e-02  1.1536298234022227e-02  1.0795983393436384e-02  9.8608457801216826e-03  8.7518922948440457e-03  7.4997379230875016e-03  6.1458650868317618e-03  4.7439736538247576e-03  3.3615212797736553e-03  2.0811196918380454e-03  1.0030734505590421e-03  2.4430570389757450e-04  -4.8551244947979248e-05  -1.4434052738867487e-05  7.2290474114822476e-05  3.1944920441510179e-04  7.0831005296440020e-04  1.2200657637125858e-03  1.8348768363496276e-03  2.5322586731963358e-03  3.2911314176194920e-03  4.0899850562764704e-03  4.9070407826899871e-03  5.7204429016478832e-03  6.5084746573681263e-03  7.2498025022068122e-03  7.9237505284403022e-03  8.5106077340472118e-03  8.9919707510533794e-03  9.3511249005653815e-03  9.5734666127932667e-03  9.6469704550109624e-03  9.5627042207281267e-03  9.3153957604470376e-03  8.9040554628233553e-03  8.3326585798997547e-03  7.6108917313832004e-03  6.7549686695900450e-03  5.7885189497753758e-03  4.7435599332952419e-03  3.6615387632849051e-03  2.5945212458799291e-03  1.6062695434219268e-03  7.7420166839879982e-04  1.8856234836888460e-04  -3.7473282844485258e-05  -9.8171007021165024e-06  4.9167262845356332e-05  2.1726849972610420e-04  4.8174626640135277e-04  8.2980909353922100e-04  1.2479634465839336e-03  1.7222770378829415e-03  2.2384127237127342e-03  2.7817407964066407e-03  3.3374487336639948e-03  3.8906717196014397e-03  4.4266394369426457e-03  4.9308422023180499e-03  5.3892176162619529e-03  5.7883595446174196e-03  6.1157512193159682e-03  6.3600244067355894e-03  6.5112467102658488e-03  6.5612392127922707e-03  6.5039268077130893e-03  6.3357237213997226e-03  6.0559568852693582e-03  5.6673300093486884e-03  5.1764313054125629e-03  4.5942883158198167e-03  3.9369723271802399e-03  3.2262594614160043e-03  2.4903393580442581e-03  1.7646237732067379e-03  1.0924795567729244e-03  5.2656137518040989e-04  1.2824778773190440e-04  -2.5486878194184182e-05  -4.9668709487349755e-06  2.4875720185438400e-05  1.0992497763605444e-04  2.4373504057152335e-04  4.1983418230253668e-04  6.3139547274439689e-04  8.7136999885091483e-04  1.1325040147488041e-03  1.4073957553728217e-03  1.6885509635579589e-03  1.9684489262167663e-03  2.2396167424116060e-03  2.4947133774941756e-03  2.7266240961121759e-03  2.9285661933973724e-03  3.0942069291995844e-03  3.2177946513343983e-03  3.2943041536776974e-03  3.3195973851677862e-03  3.2906006978711089e-03  3.2054999001156826e-03  3.0639544590855021e-03  2.8673322952368100e-03  2.6189666597045279e-03  2.3244368431936057e-03  1.9918739709577343e-03  1.6322954729478499e-03  1.2599636329161737e-03  8.9279469105546148e-04  5.5272968758281096e-04  2.6640874537092578e-04  6.4885757765766747e-05  -1.2894845335947264e-05  -2.2230489471923904e-12  1.1253454383449163e-11  4.4484937088540926e-11  9.0122887044752695e-11  1.4227631835634673e-10  1.9493229718954897e-10  2.4223737659506822e-10  2.7897223028766341e-10  3.0146173398309568e-10  3.0842629158376059e-10  3.0148546603484076e-10  2.8502789075320979e-10  2.6532883644909386e-10  2.4900271634388406e-10  2.4110457421183691e-10  2.4337211950259483e-10  2.5316393176700437e-10  2.6355549906658001e-10  2.6479216519090227e-10  2.4691358989267031e-10  2.0295154998847121e-10  1.3179428572616777e-10  3.9732653907449684e-11  -6.0052450236261363e-11  -1.5026202949009602e-10  -2.1395243847162066e-10  -2.3947914273370410e-10  -2.2433711187536447e-10  -1.7608259154141394e-10  -1.1119393314031587e-10  -4.7711118476151412e-11  -5.9569737312748652e-12  1.4352447910568251e-12  4.9668667086917165e-06  -2.4875698721132675e-05  -1.0992489291156354e-04  -2.4373486924286129e-04  -4.1983391243617842e-04  -6.3139510398584617e-04  -8.7136954202433371e-04  -1.1325034905373661e-03  -1.4073951912580362e-03  -1.6885503891403931e-03  -1.9684483675931723e-03  -2.2396162168327040e-03  -2.4947128897556316e-03  -2.7266236379637171e-03  -2.9285657466492938e-03  -3.0942064722573421e-03  -3.2177941678172548e-03  -3.2943036408804604e-03  -3.3195968597328714e-03  -3.2906001963859291e-03  -3.2054994734958915e-03  -3.0639541613498699e-03  -2.8673321691811606e-03  -2.6189667234220722e-03  -2.3244370817966094e-03  -1.9918743368078596e-03  -1.6322958953632913e-03  -1.2599640353238521e-03  -8.9279501007867156e-04  -5.5272989020773236e-04  -2.6640883224203759e-04  -6.4885768141680444e-05  1.2894847881788641e-05  9.8170970537316719e-06  -4.9167244375112125e-05  -2.1726842716305494e-04  -4.8174612055101385e-04  -8.2980886552145184e-04  -1.2479631377994745e-03  -1.7222766593977669e-03  -2.2384122948103649e-03  -2.7817403416259775e-03  -3.3374482784578005e-03  -3.8906712852308329e-03  -4.4266390357058641e-03  -4.9308418344136684e-03  -5.3892172694384914e-03  -5.7883591972221924e-03  -6.1157508465075252e-03  -6.3600239886560600e-03  -6.5112462401536071e-03  -6.5612387026413475e-03  -6.5039262893698390e-03  -6.3357232419854696e-03  -6.0559564973639247e-03  -5.6673297580736382e-03  -5.1764312158704530e-03  -4.5942883847674455e-03  -3.9369725219604093e-03  -3.2262597271828152e-03  -2.4903396317373402e-03  -1.7646239996925762e-03  -1.0924797040373425e-03  -5.2656143804637461e-04  -1.2824779380617954e-04  2.5486879830212056e-05  1.4434049992220552e-05  -7.2290460208888007e-05  -3.1944915029895793e-04  -7.0830994555729214e-04  -1.2200655984869004e-03  -1.8348766170327806e-03  -2.5322584108841864e-03  -3.2911311291931372e-03  -4.0899847616484427e-03  -4.9070405010302898e-03  -5.7204426471101641e-03  -6.5084744352155357e-03  -7.2498023063972154e-03  -7.9237503416117096e-03  -8.5106075304087758e-03  -8.9919705019971593e-03  -9.3511245820184930e-03  -9.5734662126439659e-03  -9.6469699786041405e-03  -9.5627036926140933e-03  -9.3153952213393572e-03  -8.9040549619550727e-03  -8.3326581643595170e-03  -7.6108914351304003e-03  -6.7549685052799308e-03  -5.7885189059602247e-03  -4.7435599781019107e-03  -3.6615388537235764e-03  -2.5945213395698460e-03  -1.6062696106917968e-03  -7.7420169643066701e-04  -1.8856234825958475e-04  3.7473283166560531e-05  1.8701086678860862e-05  -9.3661180595009619e-05  -4.1388565381731643e-04  -9.1770262488357875e-04  -1.5807449909430058e-03  -2.3773082494314996e-03  -3.2808520937572727e-03  -4.2640649843452942e-03  -5.2990780577360508e-03  -6.3576741919638370e-03  -7.4115366418661425e-03  -8.4325286714775211e-03  -9.3930100357027795e-03  -1.0266192542900692e-02  -1.1026538158456540e-02  -1.1650203054280873e-02  -1.2115531314260271e-02  -1.2403602231454928e-02  -1.2498835398321874e-02  -1.2389658064268786e-02  -1.2069239529661763e-02  -1.1536297641865614e-02  -1.0795982828130381e-02  -9.8608452829673544e-03  -8.7518918943795421e-03  -7.4997376306458570e-03  -6.1458648963325238e-03  -4.7439735457254330e-03  -3.3615212275546467e-03  -2.0811196701829597e-03  -1.0030734396259977e-03  -2.4430569701297571e-04  4.8551243817016242e-05  2.2501568253357865e-05  -1.1269523983123991e-04  -4.9799652892902949e-04  -1.1042004385933815e-03  -1.9019879216502196e-03  -2.8604307416099160e-03  -3.9475950039050394e-03  -5.1306188493230580e-03  -6.3759698345143513e-03  -7.6496964844241771e-03  -8.9177274560459912e-03  -1.0146207998353723e-02  -1.1301880749858844e-02  -1.2352513558967484e-02  -1.3267378490485726e-02  -1.4017786115337346e-02  -1.4577679547670115e-02  -1.4924292965147390e-02  -1.5038879667568811e-02  -1.4907515057344636e-02  -1.4521980279943248e-02  -1.3880732619027699e-02  -1.2989969185249441e-02  -1.1864790657734462e-02  -1.0530473000666838e-02  -9.0238528364140064e-03  -7.3948427295608870e-03  -5.7080555523601117e-03  -4.0446578620779239e-03  -2.5040499431731433e-03  -1.2069205003290774e-03  -2.9395410570446604e-04  5.8417947733797799e-05  2.5718855830206372e-05  -1.2880847208913165e-04  -5.6920036634399438e-04  -1.2620796657416401e-03  -2.1739352677909371e-03  -3.2694167980090267e-03  -4.5120244344359151e-03  -5.8641977097747171e-03  -7.2876096925236708e-03  -8.7434545067254146e-03  -1.0192789270441817e-02  -1.1596918662859142e-02  -1.2917830168220212e-02  -1.4118683065705849e-02  -1.5164355923978134e-02  -1.6022057283390553e-02  -1.6662004628494688e-02  -1.7058177063906423e-02  -1.7189147471532010e-02  -1.7039000302378735e-02  -1.6598341561352460e-02  -1.5865407950941879e-02  -1.4847282647433128e-02  -1.3561225434902912e-02  -1.2036126252089656e-02  -1.0314088646075921e-02  -8.4521617115276525e-03  -6.5241967081661268e-03  -4.6229654351137676e-03  -2.8620804869082545e-03  -1.3794867098641975e-03  -3.3598383974288139e-04  6.6770580818601466e-05  2.8236310571681259e-05  -1.4141671178172609e-04  -6.2491575788853619e-04  -1.3856165879809286e-03  -2.3867279111943855e-03  -3.5894391302718261e-03  -4.9536776886055277e-03  -6.4382065646907882e-03  -8.0009472489255985e-03  -9.5992954069889121e-03  -1.1190496288562344e-02  -1.2732066937177827e-02  -1.4182274037137050e-02  -1.5500670767059020e-02  -1.6648697884637784e-02  -1.7590354184121089e-02  -1.8292941928741764e-02  -1.8727893201137179e-02  -1.8871683515395327e-02  -1.8706839446232682e-02  -1.8223047475550633e-02  -1.7418371703923678e-02  -1.6300588631996255e-02  -1.4888647493037661e-02  -1.3214266078058232e-02  -1.1323669183156337e-02  -9.2794900766966937e-03  -7.1628088488239960e-03  -5.0754781402863802e-03  -3.1422313603149052e-03  -1.5145159008856835e-03  -3.6887116491723563e-04  7.3306329054086881e-05  2.9937293449772353e-05  -1.4993579236714609e-04  -6.6256129124351128e-04  -1.4690874778704943e-03  -2.5305067181885976e-03  -3.8056704268905630e-03  -5.2520920378470969e-03  -6.8260503717309171e-03  -8.4829320693906359e-03  -1.0177566271211819e-02  -1.1864622640868964e-02  -1.3499059009419697e-02  -1.5036628007949953e-02  -1.6434446261323812e-02  -1.7651631682409467e-02  -1.8650014318113400e-02  -1.9394926687048366e-02  -1.9856079909987376e-02  -2.0008532358951715e-02  -1.9833757987394691e-02  -1.9320821975400443e-02  -1.8467671798007134e-02  -1.7282552415740653e-02  -1.5785554579394040e-02  -1.4010306789279245e-02  -1.2005818468206626e-0