<?xml version="1.0"?>
<VTKFile type="UnstructuredGrid"  version="0.1"  >
<UnstructuredGrid>
<Piece  NumberOfPoints="1089" NumberOfCells="1024">
<Points>
<DataArray  type="Float64"  NumberOfComponents="3"  format="ascii">0 0 0  0.03125 0 0  0.0625 0 0  0.09375 0 0  0.125 0 0  0.15625 0 0  0.1875 0 0  0.21875 0 0  0.25 0 0  0.28125 0 0  0.3125 0 0  0.34375 0 0  0.375 0 0  0.40625 0 0  0.4375 0 0  0.46875 0 0  0.5 0 0  0.53125 0 0  0.5625 0 0  0.59375 0 0  0.625 0 0  0.65625 0 0  0.6875 0 0  0.71875 0 0  0.75 0 0  0.78125 0 0  0.8125 0 0  0.84375 0 0  0.875 0 0  0.90625 0 0  0.9375 0 0  0.96875 0 0  1 0 0  0 0.03125 0  0.03125 0.03125 0  0.0625 0.03125 0  0.09375 0.03125 0  0.125 0.03125 0  0.15625 0.03125 0  0.1875 0.03125 0  0.21875 0.03125 0  0.25 0.03125 0  0.28125 0.03125 0  0.3125 0.03125 0  0.34375 0.03125 0  0.375 0.03125 0  0.40625 0.03125 0  0.4375 0.03125 0  0.46875 0.03125 0  0.5 0.03125 0  0.53125 0.03125 0  0.5625 0.03125 0  0.59375 0.03125 0  0.625 0.03125 0  0.65625 0.03125 0  0.6875 0.03125 0  0.71875 0.03125 0  0.75 0.03125 0  0.78125 0.03125 0  0.8125 0.03125 0  0.84375 0.03125 0  0.875 0.03125 0  0.90625 0.03125 0  0.9375 0.03125 0  0.96875 0.03125 0  1 0.03125 0  0 0.0625 0  0.03125 0.0625 0  0.0625 0.0625 0  0.09375 0.0625 0  0.125 0.0625 0  0.15625 0.0625 0  0.1875 0.0625 0  0.21875 0.0625 0  0.25 0.0625 0  0.28125 0.0625 0  0.3125 0.0625 0  0.34375 0.0625 0  0.375 0.0625 0  0.40625 0.0625 0  0.4375 0.0625 0  0.46875 0.0625 0  0.5 0.0625 0  0.53125 0.0625 0  0.5625 0.0625 0  0.59375 0.0625 0  0.625 0.0625 0  0.65625 0.0625 0  0.6875 0.0625 0  0.71875 0.0625 0  0.75 0.0625 0  0.78125 0.0625 0  0.8125 0.0625 0  0.84375 0.0625 0  0.875 0.0625 0  0.90625 0.0625 0  0.9375 0.0625 0  0.96875 0.0625 0  1 0.0625 0  0 0.09375 0  0.03125 0.09375 0  0.0625 0.09375 0  0.09375 0.09375 0  0.125 0.09375 0  0.15625 0.09375 0  0.1875 0.09375 0  0.21875 0.09375 0  0.25 0.09375 0  0.28125 0.09375 0  0.3125 0.09375 0  0.34375 0.09375 0  0.375 0.09375 0  0.40625 0.09375 0  0.4375 0.09375 0  0.46875 0.09375 0  0.5 0.09375 0  0.53125 0.09375 0  0.5625 0.09375 0  0.59375 0.09375 0  0.625 0.09375 0  0.65625 0.09375 0  0.6875 0.09375 0  0.71875 0.09375 0  0.75 0.09375 0  0.78125 0.09375 0  0.8125 0.09375 0  0.84375 0.09375 0  0.875 0.09375 0  0.90625 0.09375 0  0.9375 0.09375 0  0.96875 0.09375 0  1 0.09375 0  0 0.125 0  0.03125 0.125 0  0.0625 0.125 0  0.09375 0.125 0  0.125 0.125 0  0.15625 0.125 0  0.1875 0.125 0  0.21875 0.125 0  0.25 0.125 0  0.28125 0.125 0  0.3125 0.125 0  0.34375 0.125 0  0.375 0.125 0  0.40625 0.125 0  0.4375 0.125 0  0.46875 0.125 0  0.5 0.125 0  0.53125 0.125 0  0.5625 0.125 0  0.59375 0.125 0  0.625 0.125 0  0.65625 0.125 0  0.6875 0.125 0  0.71875 0.125 0  0.75 0.125 0  0.78125 0.125 0  0.8125 0.125 0  0.84375 0.125 0  0.875 0.125 0  0.90625 0.125 0  0.9375 0.125 0  0.96875 0.125 0  1 0.125 0  0 0.15625 0  0.03125 0.15625 0  0.0625 0.15625 0  0.09375 0.15625 0  0.125 0.15625 0  0.15625 0.15625 0  0.1875 0.15625 0  0.21875 0.15625 0  0.25 0.15625 0  0.28125 0.15625 0  0.3125 0.15625 0  0.34375 0.15625 0  0.375 0.15625 0  0.40625 0.15625 0  0.4375 0.15625 0  0.46875 0.15625 0  0.5 0.15625 0  0.53125 0.15625 0  0.5625 0.15625 0  0.59375 0.15625 0  0.625 0.15625 0  0.65625 0.15625 0  0.6875 0.15625 0  0.71875 0.15625 0  0.75 0.15625 0  0.78125 0.15625 0  0.8125 0.15625 0  0.84375 0.15625 0  0.875 0.15625 0  0.90625 0.15625 0  0.9375 0.15625 0  0.96875 0.15625 0  1 0.15625 0  0 0.1875 0  0.03125 0.1875 0  0.0625 0.1875 0  0.09375 0.1875 0  0.125 0.1875 0  0.15625 0.1875 0  0.1875 0.1875 0  0.21875 0.1875 0  0.25 0.1875 0  0.28125 0.1875 0  0.3125 0.1875 0  0.34375 0.1875 0  0.375 0.1875 0  0.40625 0.1875 0  0.4375 0.1875 0  0.46875 0.1875 0  0.5 0.1875 0  0.53125 0.1875 0  0.5625 0.1875 0  0.59375 0.1875 0  0.625 0.1875 0  0.65625 0.1875 0  0.6875 0.1875 0  0.71875 0.1875 0  0.75 0.1875 0  0.78125 0.1875 0  0.8125 0.1875 0  0.84375 0.1875 0  0.875 0.1875 0  0.90625 0.1875 0  0.9375 0.1875 0  0.96875 0.1875 0  1 0.1875 0  0 0.21875 0  0.03125 0.21875 0  0.0625 0.21875 0  0.09375 0.21875 0  0.125 0.21875 0  0.15625 0.21875 0  0.1875 0.21875 0  0.21875 0.21875 0  0.25 0.21875 0  0.28125 0.21875 0  0.3125 0.21875 0  0.34375 0.21875 0  0.375 0.21875 0  0.40625 0.21875 0  0.4375 0.21875 0  0.46875 0.21875 0  0.5 0.21875 0  0.53125 0.21875 0  0.5625 0.21875 0  0.59375 0.21875 0  0.625 0.21875 0  0.65625 0.21875 0  0.6875 0.21875 0  0.71875 0.21875 0  0.75 0.21875 0  0.78125 0.21875 0  0.8125 0.21875 0  0.84375 0.21875 0  0.875 0.21875 0  0.90625 0.21875 0  0.9375 0.21875 0  0.96875 0.21875 0  1 0.21875 0  0 0.25 0  0.03125 0.25 0  0.0625 0.25 0  0.09375 0.25 0  0.125 0.25 0  0.15625 0.25 0  0.1875 0.25 0  0.21875 0.25 0  0.25 0.25 0  0.28125 0.25 0  0.3125 0.25 0  0.34375 0.25 0  0.375 0.25 0  0.40625 0.25 0  0.4375 0.25 0  0.46875 0.25 0  0.5 0.25 0  0.53125 0.25 0  0.5625 0.25 0  0.59375 0.25 0  0.625 0.25 0  0.65625 0.25 0  0.6875 0.25 0  0.71875 0.25 0  0.75 0.25 0  0.78125 0.25 0  0.8125 0.25 0  0.84375 0.25 0  0.875 0.25 0  0.90625 0.25 0  0.9375 0.25 0  0.96875 0.25 0  1 0.25 0  0 0.28125 0  0.03125 0.28125 0  0.0625 0.28125 0  0.09375 0.28125 0  0.125 0.28125 0  0.15625 0.28125 0  0.1875 0.28125 0  0.21875 0.28125 0  0.25 0.28125 0  0.28125 0.28125 0  0.3125 0.28125 0  0.34375 0.28125 0  0.375 0.28125 0  0.40625 0.28125 0  0.4375 0.28125 0  0.46875 0.28125 0  0.5 0.28125 0  0.53125 0.28125 0  0.5625 0.28125 0  0.59375 0.28125 0  0.625 0.28125 0  0.65625 0.28125 0  0.6875 0.28125 0  0.71875 0.28125 0  0.75 0.28125 0  0.78125 0.28125 0  0.8125 0.28125 0  0.84375 0.28125 0  0.875 0.28125 0  0.90625 0.28125 0  0.9375 0.28125 0  0.96875 0.28125 0  1 0.28125 0  0 0.3125 0  0.03125 0.3125 0  0.0625 0.3125 0  0.09375 0.3125 0  0.125 0.3125 0  0.15625 0.3125 0  0.1875 0.3125 0  0.21875 0.3125 0  0.25 0.3125 0  0.28125 0.3125 0  0.3125 0.3125 0  0.34375 0.3125 0  0.375 0.3125 0  0.40625 0.3125 0  0.4375 0.3125 0  0.46875 0.3125 0  0.5 0.3125 0  0.53125 0.3125 0  0.5625 0.3125 0  0.59375 0.3125 0  0.625 0.3125 0  0.65625 0.3125 0  0.6875 0.3125 0  0.71875 0.3125 0  0.75 0.3125 0  0.78125 0.3125 0  0.8125 0.3125 0  0.84375 0.3125 0  0.875 0.3125 0  0.90625 0.3125 0  0.9375 0.3125 0  0.96875 0.3125 0  1 0.3125 0  0 0.34375 0  0.03125 0.34375 0  0.0625 0.34375 0  0.09375 0.34375 0  0.125 0.34375 0  0.15625 0.34375 0  0.1875 0.34375 0  0.21875 0.34375 0  0.25 0.34375 0  0.28125 0.34375 0  0.3125 0.34375 0  0.34375 0.34375 0  0.375 0.34375 0  0.40625 0.34375 0  0.4375 0.34375 0  0.46875 0.34375 0  0.5 0.34375 0  0.53125 0.34375 0  0.5625 0.34375 0  0.59375 0.34375 0  0.625 0.34375 0  0.65625 0.34375 0  0.6875 0.34375 0  0.71875 0.34375 0  0.75 0.34375 0  0.78125 0.34375 0  0.8125 0.34375 0  0.84375 0.34375 0  0.875 0.34375 0  0.90625 0.34375 0  0.9375 0.34375 0  0.96875 0.34375 0  1 0.34375 0  0 0.375 0  0.03125 0.375 0  0.0625 0.375 0  0.09375 0.375 0  0.125 0.375 0  0.15625 0.375 0  0.1875 0.375 0  0.21875 0.375 0  0.25 0.375 0  0.28125 0.375 0  0.3125 0.375 0  0.34375 0.375 0  0.375 0.375 0  0.40625 0.375 0  0.4375 0.375 0  0.46875 0.375 0  0.5 0.375 0  0.53125 0.375 0  0.5625 0.375 0  0.59375 0.375 0  0.625 0.375 0  0.65625 0.375 0  0.6875 0.375 0  0.71875 0.375 0  0.75 0.375 0  0.78125 0.375 0  0.8125 0.375 0  0.84375 0.375 0  0.875 0.375 0  0.90625 0.375 0  0.9375 0.375 0  0.96875 0.375 0  1 0.375 0  0 0.40625 0  0.03125 0.40625 0  0.0625 0.40625 0  0.09375 0.40625 0  0.125 0.40625 0  0.15625 0.40625 0  0.1875 0.40625 0  0.21875 0.40625 0  0.25 0.40625 0  0.28125 0.40625 0  0.3125 0.40625 0  0.34375 0.40625 0  0.375 0.40625 0  0.40625 0.40625 0  0.4375 0.40625 0  0.46875 0.40625 0  0.5 0.40625 0  0.53125 0.40625 0  0.5625 0.40625 0  0.59375 0.40625 0  0.625 0.40625 0  0.65625 0.40625 0  0.6875 0.40625 0  0.71875 0.40625 0  0.75 0.40625 0  0.78125 0.40625 0  0.8125 0.40625 0  0.84375 0.40625 0  0.875 0.40625 0  0.90625 0.40625 0  0.9375 0.40625 0  0.96875 0.40625 0  1 0.40625 0  0 0.4375 0  0.03125 0.4375 0  0.0625 0.4375 0  0.09375 0.4375 0  0.125 0.4375 0  0.15625 0.4375 0  0.1875 0.4375 0  0.21875 0.4375 0  0.25 0.4375 0  0.28125 0.4375 0  0.3125 0.4375 0  0.34375 0.4375 0  0.375 0.4375 0  0.40625 0.4375 0  0.4375 0.4375 0  0.46875 0.4375 0  0.5 0.4375 0  0.53125 0.4375 0  0.5625 0.4375 0  0.59375 0.4375 0  0.625 0.4375 0  0.65625 0.4375 0  0.6875 0.4375 0  0.71875 0.4375 0  0.75 0.4375 0  0.78125 0.4375 0  0.8125 0.4375 0  0.84375 0.4375 0  0.875 0.4375 0  0.90625 0.4375 0  0.9375 0.4375 0  0.96875 0.4375 0  1 0.4375 0  0 0.46875 0  0.03125 0.46875 0  0.0625 0.46875 0  0.09375 0.46875 0  0.125 0.46875 0  0.15625 0.46875 0  0.1875 0.46875 0  0.21875 0.46875 0  0.25 0.46875 0  0.28125 0.46875 0  0.3125 0.46875 0  0.34375 0.46875 0  0.375 0.46875 0  0.40625 0.46875 0  0.4375 0.46875 0  0.46875 0.46875 0  0.5 0.46875 0  0.53125 0.46875 0  0.5625 0.46875 0  0.59375 0.46875 0  0.625 0.46875 0  0.65625 0.46875 0  0.6875 0.46875 0  0.71875 0.46875 0  0.75 0.46875 0  0.78125 0.46875 0  0.8125 0.46875 0  0.84375 0.46875 0  0.875 0.46875 0  0.90625 0.46875 0  0.9375 0.46875 0  0.96875 0.46875 0  1 0.46875 0  0 0.5 0  0.03125 0.5 0  0.0625 0.5 0  0.09375 0.5 0  0.125 0.5 0  0.15625 0.5 0  0.1875 0.5 0  0.21875 0.5 0  0.25 0.5 0  0.28125 0.5 0  0.3125 0.5 0  0.34375 0.5 0  0.375 0.5 0  0.40625 0.5 0  0.4375 0.5 0  0.46875 0.5 0  0.5 0.5 0  0.53125 0.5 0  0.5625 0.5 0  0.59375 0.5 0  0.625 0.5 0  0.65625 0.5 0  0.6875 0.5 0  0.71875 0.5 0  0.75 0.5 0  0.78125 0.5 0  0.8125 0.5 0  0.84375 0.5 0  0.875 0.5 0  0.90625 0.5 0  0.9375 0.5 0  0.96875 0.5 0  1 0.5 0  0 0.53125 0  0.03125 0.53125 0  0.0625 0.53125 0  0.09375 0.53125 0  0.125 0.53125 0  0.15625 0.53125 0  0.1875 0.53125 0  0.21875 0.53125 0  0.25 0.53125 0  0.28125 0.53125 0  0.3125 0.53125 0  0.34375 0.53125 0  0.375 0.53125 0  0.40625 0.53125 0  0.4375 0.53125 0  0.46875 0.53125 0  0.5 0.53125 0  0.53125 0.53125 0  0.5625 0.53125 0  0.59375 0.53125 0  0.625 0.53125 0  0.65625 0.53125 0  0.6875 0.53125 0  0.71875 0.53125 0  0.75 0.53125 0  0.78125 0.531
[...]
<PointData  Scalars="v_sol"> 
<DataArray  type="Float64"  Name="v_sol"  format="ascii">7.7402614277672472e-08  9.3448504583954904e-06  1.7646932213433227e-05  2.4929106092970080e-05  3.1144944185648630e-05  3.6252433203105472e-05  4.0216173455607580e-05  4.3008097707394020e-05  4.4608707538758157e-05  4.5008298322194760e-05  4.4208323593827868e-05  4.2222867985766598e-05  3.9080246959864835e-05  3.4824739141784349e-05  2.9518460980004058e-05  2.3243393095201539e-05  1.6103568484526243e-05  8.2274332834815636e-06  -2.2960856789443306e-07  -9.0824547482632803e-06  -1.8113355352697914e-05  -2.7068741666008782e-05  -3.5655818497053917e-05  -4.3538905880920328e-05  -5.0335510867843388e-05  -5.5612125973961963e-05  -5.8879684833244350e-05  -5.9588853634869591e-05  -5.7124392799868733e-05  -5.0801363522578932e-05  -3.9852742141390975e-05  -2.3447022011747247e-05  -5.9339502486686756e-07  -3.8851642328690259e-07  -4.6905732320314672e-05  -8.8577371291143707e-05  -1.2512966392173001e-04  -1.5632956822593530e-04  -1.8196620315501255e-04  -2.0186188186967590e-04  -2.1587572360551148e-04  -2.2390985736493843e-04  -2.2591557164073744e-04  -2.2190016229347854e-04  -2.1193432602478843e-04  -1.9616019002883825e-04  -1.7480000734064661e-04  -1.4816556652415147e-04  -1.1666836277794912e-04  -8.0830581450001655e-05  -4.1296947697159015e-05  1.1525007707591272e-06  4.5588657572234773e-05  9.0918544400382385e-05  1.3586939322725745e-04  1.7897154199769219e-04  2.1854007160271945e-04  2.5265508977574360e-04  2.7914063872051483e-04  2.9554189241519878e-04  2.9910150539495334e-04  2.8673134898410889e-04  2.5499339442658939e-04  2.0003767372203448e-04  1.1769047583281090e-04  2.9784902700187927e-06  -1.6547521196939803e-06  -1.9977898484193073e-04  -3.7726510489595287e-04  -5.3294711301501475e-04  -6.6583246158138942e-04  -7.7502295361636480e-04  -8.5976180669181622e-04  -9.1944898002821311e-04  -9.5366762862439131e-04  -9.6221028094980803e-04  -9.4510801167507633e-04  -9.0266192895445321e-04  -8.3547737508630137e-04  -7.4450096098023456e-04  -6.3106064369003272e-04  -4.9690904670248218e-04  -3.4427024048543304e-04  -1.7589021201748294e-04  4.9087340346449619e-06  1.9416938594211421e-04  3.8723657514562883e-04  5.7868938059569934e-04  7.6226827647195132e-04  9.3079692679422547e-04  1.0760981962977256e-03  1.1889043530192982e-03  1.2587598521357835e-03  1.2739208342815648e-03  1.2212342150551899e-03  1.0860573904751677e-03  8.5199197973789473e-04  5.0126201848207247e-04  1.2685975747462851e-05  -3.5491583110337830e-06  -4.2849130609253898e-04  -8.0916825149967273e-04  -1.1430791526326526e-03  -1.4280951777109405e-03  -1.6622898410032509e-03  -1.8440399809230889e-03  -1.9720586117436675e-03  -2.0454516739746901e-03  -2.0637741766572431e-03  -2.0270927694347181e-03  -1.9360532768186571e-03  -1.7919540528864976e-03  -1.5968254138015202e-03  -1.3535155972129000e-03  -1.0657836767669667e-03  -7.3839989823783821e-04  -3.7725392787082783e-04  1.0528466578893864e-05  4.1645975178390107e-04  8.3055539799308962e-04  1.2411884689124942e-03  1.6349333659954497e-03  1.9963980915325072e-03  2.3080441048884412e-03  2.5499937284668801e-03  2.6998216172143337e-03  2.7323392581854213e-03  2.6193354844217796e-03  2.3294046449359915e-03  1.8273747135832369e-03  1.0751196524388764e-03  2.7209223856479929e-05  -5.9200223278701869e-06  -7.1472640039471624e-04  -1.3496980966241326e-03  -1.9066637096949110e-03  -2.3820723430714058e-03  -2.7727106021432244e-03  -3.0758710457421284e-03  -3.2894069720585529e-03  -3.4118270842867491e-03  -3.4423891341374387e-03  -3.3812042934210527e-03  -3.2293498013928660e-03  -2.9889913210887934e-03  -2.6635154333402981e-03  -2.2576730177027993e-03  -1.7777342344850715e-03  -1.2316558860493150e-03  -6.2926197569814835e-04  1.7561667626111320e-05  6.9465778085859903e-04  1.3853721007134978e-03  2.0703108185107033e-03  2.7270799441072940e-03  3.3300055199376043e-03  3.8498331383134223e-03  4.2534066978665575e-03  4.5033205620990434e-03  4.5575601365916213e-03  4.3690689648791048e-03  3.8854623126872751e-03  3.0480728411113895e-03  1.7933062979814077e-03  4.5385142090580817e-05  -8.6245841787592324e-06  -1.0412488636216601e-03  -1.9663070952052452e-03  -2.7777221900671112e-03  -3.4703210343845674e-03  -4.0394221947737553e-03  -4.4810813395154874e-03  -4.7921710468144573e-03  -4.9705187220072389e-03  -5.0150430207943492e-03  -4.9259059035335782e-03  -4.7046767453823050e-03  -4.3545105912384946e-03  -3.8803411796710604e-03  -3.2890898274379058e-03  -2.5898912150017143e-03  -1.7943372067268876e-03  -9.1673989794650802e-04  2.5584846180362573e-05  1.0120120226144954e-03  2.0182788744227140e-03  3.0161315387034733e-03  3.9729453386840741e-03  4.8513171776344028e-03  5.6086277800914503e-03  6.1965736909686030e-03  6.5606605173841289e-03  6.6396793242688565e-03  6.3650759115891154e-03  5.6605336745112322e-03  4.4405830461400298e-03  2.6125769661474400e-03  6.6119290093096227e-05  -1.1532114009754243e-05  -1.3922756756720887e-03  -2.6291904017364557e-03  -3.7141505007413349e-03  -4.6402389009087882e-03  -5.4011959602755641e-03  -5.9917476329438921e-03  -6.4077121781510463e-03  -6.6461845747152228e-03  -6.7057189345815695e-03  -6.5865318182389493e-03  -6.2907216697830164e-03  -5.8225071654765701e-03  -5.1884853101703612e-03  -4.3979107412444188e-03  -3.4629976311780501e-03  -2.3992457046330641e-03  -1.2257919641742803e-03  3.4210183971579398e-05  1.3531826158045940e-03  2.6986830899878157e-03  4.0329327731328784e-03  5.3123085240612327e-03  6.4867978752437324e-03  7.4994136959870179e-03  8.2855684210343603e-03  8.7723964503319159e-03  8.8780540417261345e-03  8.5108759288189135e-03  7.5688176395547844e-03  5.9375959964156006e-03  3.4933308425268888e-03  8.8409452105004882e-05  -1.4523087595034434e-05  -1.7533766609430645e-03  -3.3110978979299282e-03  -4.6774535078904717e-03  -5.8437324113848142e-03  -6.8020514654875330e-03  -7.5457687490408593e-03  -8.0696179448474809e-03  -8.3699405856282796e-03  -8.4449157778427285e-03  -8.2948162493426091e-03  -7.9222846971322338e-03  -7.3326339541611076e-03  -6.5341720257536939e-03  -5.5385538339577517e-03  -4.3611614216960059e-03  -3.0215145257792603e-03  -1.5437135263780381e-03  4.3083096934230439e-05  1.7041445504162138e-03  3.3986143635453742e-03  5.0789153728776557e-03  6.6901103248153413e-03  8.1692155010649314e-03  9.4444635688284932e-03  1.0434515511249272e-02  1.1047607283221631e-02  1.1180668135334372e-02  1.0718258473026085e-02  9.5318675955714909e-03  7.4775718090191387e-03  4.3993615105212078e-03  1.1133931725763222e-04  -1.7489407227005516e-05  -2.1115011602576509e-03  -3.9873845605938631e-03  -5.6328161894446706e-03  -7.0373057474663525e-03  -8.1913599735827288e-03  -9.0869803470087808e-03  -9.7178249146596882e-03  -1.0079487974205593e-02  -1.0169776718224350e-02  -9.9890195793735856e-03  -9.5403990216768320e-03  -8.8303130159306867e-03  -7.8687664643257282e-03  -6.6697947880822572e-03  -5.2519217878057951e-03  -3.6386540755608179e-03  -1.8590144963153120e-03  5.1882896058957159e-05  2.0522135961104368e-03  4.0927762604046763e-03  6.1162761600410641e-03  8.0565551874833205e-03  9.8377652914869978e-03  1.1373480766075436e-02  1.2565749221042487e-02  1.3304063943209576e-02  1.3464302148109373e-02  1.2907445886219926e-02  1.1478736389943612e-02  9.0048537849716746e-03  5.2979238678889885e-03  1.3408017259419015e-04  -2.0334342473857401e-05  -2.4549708840094233e-03  -4.6359969656191383e-03  -6.5490845698510068e-03  -8.1820369846996137e-03  -9.5238167188168178e-03  -1.0565124165470138e-02  -1.1298585752225379e-02  -1.1719079119817183e-02  -1.1824054766605396e-02  -1.1613894551121271e-02  -1.1092298617068086e-02  -1.0266705668435768e-02  -9.1487480655720894e-03  -7.7547443161955065e-03  -6.1062314142566708e-03  -4.2305396996376414e-03  -2.1614130495987783e-03  6.0322615619172823e-05  2.3860393598321436e-03  4.7585324456498931e-03  7.1111872288720252e-03  9.3670839137226652e-03  1.1438036534339256e-02  1.3223560844147459e-02  1.4609770913425175e-02  1.5468184328960426e-02  1.5654487741879285e-02  1.5007049700531761e-02  1.3345937469887980e-02  1.0469637923568526e-02  6.1597161915149167e-03  1.5589044993541268e-04  -2.2972546017296751e-05  -2.7734818267630425e-03  -5.2374769037333395e-03  -7.3987708280207967e-03  -9.2435844741054190e-03  -1.0759448334608649e-02  -1.1935856262665372e-02  -1.2764478031271521e-02  -1.3239526701863607e-02  -1.3358121999033036e-02  -1.3120695325575162e-02  -1.2531426887362179e-02  -1.1598720495250429e-02  -1.0335717705709957e-02  -8.7608542082119878e-03  -6.8984612305769645e-03  -4.7794149820871738e-03  -2.4418373099279896e-03  6.8149061792769524e-05  2.6956071482914109e-03  5.3759103968766863e-03  8.0338014932231899e-03  1.0582380966944598e-02  1.2922021490390997e-02  1.4939201862000324e-02  1.6505260449066410e-02  1.7475045373315980e-02  1.7685519904244398e-02  1.6954082339594577e-02  1.5077455287974037e-02  1.1827981085989949e-02  6.9588849412833640e-03  1.7611584745947991e-04  -2.5330049381325184e-05  -3.0581037537448794e-03  -5.7749604109043392e-03  -8.1580519276947833e-03  -1.0192185131069557e-02  -1.1863610861810998e-02  -1.3160744806928771e-02  -1.4074401871678660e-02  -1.4598201248897396e-02  -1.4728967083906589e-02  -1.4467175053093624e-02  -1.3817434347316283e-02  -1.2789011198876977e-02  -1.1396395784345887e-02  -9.6599157098274102e-03  -7.6063991343344791e-03  -5.2698908609922395e-03  -2.6924248974511721e-03  7.5142799635210484e-05  2.9722374685707460e-03  5.9276004087180680e-03  8.8582511992127237e-03  1.1668372513408694e-02  1.4248113001555655e-02  1.6472301616089098e-02  1.8199073131373478e-02  1.9268379808723785e-02  1.9500453674806233e-02  1.8693953979911949e-02  1.6624742511079742e-02  1.3041798806074522e-02  7.6730234724925088e-03  1.9418929729095067e-04  -2.7344264059508154e-05  -3.3012803379456161e-03  -6.2341780273126894e-03  -8.8067699833143092e-03  -1.1002654892434405e-02  -1.2806990280734004e-02  -1.4207270666850586e-02  -1.5193580570601863e-02  -1.5759031793253397e-02  -1.5900195942539191e-02  -1.5617586522344752e-02  -1.4916179242362913e-02  -1.3805977174818070e-02  -1.2302622736350310e-02  -1.0428059956793943e-02  -8.2112503335907156e-03  -5.6889458663477365e-03  -2.9065230512435158e-03  8.1118154670282134e-05  3.2085861597456128e-03  6.3989558572808908e-03  9.5626483215421835e-03  1.2596226945153345e-02  1.5381105130181531e-02  1.7782158380050785e-02  1.9646240524154278e-02  2.0800577033200540e-02  2.1051105021672106e-02  2.0180473391200524e-02  1.7946720767783645e-02  1.4078865876875572e-02  8.2831723811830626e-03  2.0963097425705045e-04  -2.8963981202901278e-05  -3.4968291229741113e-03  -6.6034547272235357e-03  -9.3284321609446753e-03  -1.1654388592683045e-02  -1.3565602366973493e-02  -1.5048827251296207e-02  -1.6093560431359882e-02  -1.6692505693588808e-02  -1.6842031570182082e-02  -1.6542681984654310e-02  -1.5799727381067784e-02  -1.4623763356813976e-02  -1.3031358894352574e-02  -1.1045757858879403e-02  -8.6976372561677895e-03  -6.0259260580183991e-03  -3.0786885987779595e-03  8.5923209751319338e-05  3.3986443546964377e-03  6.7779931264114858e-03  1.0129084454716088e-02  1.3342354737795038e-02  1.6292192986316050e-02  1.8835470705751055e-02  2.0809970232377892e-02  2.2032682878598150e-02  2.2298050607149004e-02  2.1375847711854870e-02  1.9009780448740927e-02  1.4912816194092132e-02  8.7738194120900431e-03  2.2204829359262325e-04  -3.0149371699897883e-05  -3.6399415327400850e-03  -6.8737099372647046e-03  -9.7102107040672788e-03  -1.2131359996113325e-02  -1.4120792728800628e-02  -1.5664720550823411e-02  -1.6752210807684829e-02  -1.7375668680766603e-02  -1.7531314082353217e-02  -1.7219713199603266e-02  -1.6446352178842612e-02  -1.5222260257542976e-02  -1.3564684525335373e-02  -1.1497820131301626e-02  -9.0535995749167347e-03  -6.2725450438993417e-03  -3.2046879661226943e-03  8.9439803561449404e-05  3.5377384878765381e-03  7.0553916250830585e-03  1.0543630840122489e-02  1.3888408487032582e-02  1.6958972772960577e-02  1.9606337476147321e-02  2.1661645960987373e-02  2.2934399673138151e-02  2.3210627851165108e-02  2.2250682509788452e-02  1.9787780760772082e-02  1.5523142798486961e-02  9.1328994836294228e-03  2.3113591158263033e-04  -3.0871986155361394e-05  -3.7271828687597112e-03  -7.0384575313214561e-03  -9.9429429263414078e-03  -1.2422121787753719e-02  -1.4459236796532762e-02  -1.6040169125826103e-02  -1.7153724090973925e-02  -1.7792124844571811e-02  -1.7951500701389504e-02  -1.7632431421803596e-02  -1.6840534645336122e-02  -1.5587103957017085e-02  -1.3889799820404534e-02  -1.1773397286208366e-02  -9.2705942011963912e-03  -6.4228839756239062e-03  -3.2814971760440417e-03  9.1583530013288690e-05  3.6225302921716906e-03  7.2244937817258700e-03  1.0796338357895960e-02  1.4221282898160518e-02  1.7365441773417849e-02  2.0076257890746251e-02  2.2180827498857043e-02  2.3484086224410838e-02  2.3766934914030133e-02  2.2783981765878841e-02  2.0262049712143008e-02  1.5895197864358297e-02  9.3517946811763238e-03  2.3667572541697537e-04  -3.1114754899882162e-05  -3.7564923109540240e-03  -7.0938058320289179e-03  -1.0021131213701745e-02  -1.2519805575964856e-02  -1.4572939825524288e-02  -1.6166304109789240e-02  -1.7288615713679633e-02  -1.7932036637109867e-02  -1.8092665759738641e-02  -1.7771087403981266e-02  -1.6972963387223601e-02  -1.5709676105004365e-02  -1.3999024896780248e-02  -1.1865979634176887e-02  -9.3434952858215056e-03  -6.4733915489030335e-03  -3.3073018476897299e-03  9.2303739247534119e-05  3.6510168005711341e-03  7.2813050465157982e-03  1.0881237529719158e-02  1.4333114789237940e-02  1.7501998354662075e-02  2.0234131469012095e-02  2.2355250722113133e-02  2.3668757822533647e-02  2.3953830699405494e-02  2.2963147876742782e-02  2.0421384115092565e-02  1.6020192701644485e-02  9.4253342584458260e-03  2.3853687326202787e-04  -3.0871987992922131e-05  -3.7271829176601439e-03  -7.0384576107834634e-03  -9.9429430243817684e-03  -1.2422121892472982e-02  -1.4459236896188592e-02  -1.6040169209256445e-02  -1.7153724149166431e-02  -1.7792124872494566e-02  -1.7951500699425863e-02  -1.7632431396184860e-02  -1.6840534607137199e-02  -1.5587103919678604e-02  -1.3889799796177854e-02  -1.1773397282348622e-02  -9.2705942169846213e-03  -6.4228840012825307e-03  -3.2814971942521334e-03  9.1583539960533948e-05  3.6225303483408164e-03  7.2244938932044377e-03  1.0796338520089353e-02  1.4221283091565947e-02  1.7365441966839163e-02  2.0076258048795450e-02  2.2180827591535234e-02  2.3484086236741749e-02  2.3766934850462058e-02  2.2783981650947142e-02  2.0262049582589727e-02  1.5895197753603631e-02  9.3517946363471938e-03  2.3667573428374941e-04  -3.0149375229017426e-05  -3.6399416259792045e-03  -6.8737100883918285e-03  -9.7102108898468407e-03  -1.2131360193552656e-02  -1.4120792915368510e-02  -1.5664720705297182e-02  -1.6752210913164183e-02  -1.7375668728167169e-02  -1.7531314073123833e-02  -1.7219713146504990e-02  -1.6446352103952521e-02  -1.5222260187412965e-02  -1.3564684484068555e-02  -1.1497820133138097e-02  -9.0535996184178350e-03  -6.2725451097914841e-03  -3.2046880201774576e-03  8.9439802507328896e-05  3.5377385762506513e-03  7.0553918222221509e-03  1.0543631139003576e-02  1.3888408851652111e-02  1.6958973144251117e-02  1.9606337786183245e-02  2.1661646151282948e-02  2.2934399713199761e-02  2.3210627747165473e-02  2.2250682306266634e-02  1.9787780526044452e-02  1.5523142595287193e-02  9.1328994023426157e-03  2.3113592868940152e-04  -2.8963986143854127e-05  -3.4968292520271929e-03  -6.6034549355309200e-03  -9.3284324154527844e-03  -1.1654388860860527e-02  -1.3565602617296208e-02  -1.5048827454518517e-02  -1.6093560564736233e-02  -1.6692505745719250e-02  -1.6842031544731670e-02  -1.6542681901323516e-02  -1.5799727272641857e-02  -1.4623763262189263e-02  -1.3031358848616713e-02  -1.1045757882688474e-02  -8.6976373473771334e-03  -6.0259261884933260e-03  -3.0786887183591209e-03  8.5923161940888864e-05  3.3986444336623163e-03  6.7779933635713418e-03  1.0129084844371097e-02  1.3342355232845713e-02  1.6292193505959458e-02  1.8835471154920607e-02  2.0809970527147531e-02  2.2032682972293088e-02  2.2298050503000925e-02  2.1375847466358042e-02  1.9009780152446493e-02  1.4912815931518270e-02  8.7738193094846172e-03  2.2204831775691784e-04  -2.7344270023153456e-05  -3.3012804914289728e-03  -6.2341782736514374e-03  -8.8067702817084623e-03  -1.1002655202997631e-02  -1.2806990565383515e-02  -1.4207270890991667e-02  -1.5193580708241302e-02  -1.5759031832784171e-02  -1.5900195891095578e-02  -1.5617586406776147e-02  -1.4916179105404360e-02  -1.3805977066337429e-02  -1.2302622700981650e-02  -1.0428060020698762e-02  -8.2112504939682064e-03  -5.6889460872984968e-03  -2.9065232684501513e-03  8.1118020149658219e-05  3.2085861810168862e-03  6.3989560795090980e-03  9.5626487446861044e-03  1.2596227517766245e-02  1.5381105757742852e-02  1.7782158947723576e-02  1.9646240927144596e-02  2.0800577208553175e-02  2.1051104964411170e-02  2.0180473159978174e-02  1.7946720463638949e-02  1.4078865596402363e-02  8.2831722762565559e-03  2.0963100386701790e-04  -2.5330055904645205e-05  -3.0581039188540627e-03  -5.7749606740515455e-03  -8.1580522429190918e-03  -1.0192185453764801e-02  -1.1863611150134741e-02  -1.3160745023874237e-02  -1.4074401990718263e-02  -1.4598201260245280e-02  -1.4728966999110728e-02  -1.4467174905826153e-02  -1.3817434188799630e-02  -1.2789011087818420e-02  -1.1396395772835272e-02  -9.6599158282487038e-03  -7.6063993793330431e-03  -5.2698911905472660e-03  -2.6924252358614628e-03  7.5142546430448381e-05  2.9722373899597155e-03  5.9276005641887754e-03  8.8582515981299043e-03  1.1668373106796123e-02  1.4248113689910176e-02  1.6472302273369915e-02  1.8199073637894934e-02  1.9268380086427134e-02  1.9500453706154351e-02  1.8693953816243686e-02  1.6624742251900835e-02  1.3041798549734272e-02  7.6730233844369928e-03  1.9418933046031823e-04  -2.2972552607997755e-05  -2.7734819908262296e-03  -5.2374771631126926e-03  -7.3987711345015993e-03  -9.2435847812165507e-03  -1.0759448599609528e-02  -1.1935856448956979e-02  -1.2764478114201510e-02  -1.3239526675010278e-02  -1.3358121878652386e-02  -1.3120695151058908e-02  -1.2531426716117880e-02  -1.1598720391885935e-02  -1.0335717727028902e-02  -8.7608543871768394e-03  -6.8984615634348585e-03  -4.7794154228884148e-03  -2.4418377754207980e-03  6.8148676345944920e-05  2.6956069449699384e-03  5.3759104482458868e-03  8.0338018201960900e-03  1.0582381528694840e-02  1.2922022190696221e-02  1.4939202572488309e-02  1.6505261042226268e-02  1.7475045758910554e-02  1.7685520049997978e-02  1.6954082282257237e-02  1.5077455115254322e-02  1.1827980888661429e-02  6.9588848857731842e-03  1.7611588218404136e-04  -2.0334348660571733e-05  -2.4549710359262817e-03  -4.6359972037151257e-03  -6.5490848466280343e-03  -8.1820372546303616e-03  -9.5238169408939956e-03  -1.0565124305883584e-02  -1.1298585789987159e-02  -1.1719079052659506e-02  -1.1824054614961537e-02  -1.1613894358162485e-02  -1.1092298443294842e-02  -1.0266705580732963e-02  -9.1487481221978958e-03  -7.7547445507673979e-03  -6.1062318228145068e-03  -4.2305402349235429e-03  -2.1614136255264050e-03  6.0322108660026306e-05  2.3860390312187901e-03  4.7585323776598203e-03  7.1111874538873935e-03  9.3670844027209030e-03  1.1438037201161736e-02  1.3223561566369901e-02  1.4609771563332362e-02  1.5468184808851525e-02  1.5654488005410236e-02  1.5007049766018654e-02  1.3345937406240823e-02  1.0469637806972942e-02  6.1597161776865269e-03  1.5589048423238260e-04  -1.7489412609746833e-05  -2.1115012916226427e-03  -3.9873847647034335e-03  -5.6328164222521071e-03  -7.0373059668805841e-03  -8.1913601424875807e-03  -9.0869804361083210e-03  -9.7178249076331161e-03  -1.0079487872895945e-02  -1.0169776545920344e-02  -9.9890193804084652e-03  -9.5403988560260698e-03  -8.8303129487624105e-03  -7.8687665518597620e-03  -6.6697950625513470e-03  -5.2519222452403853e-03  -3.6386546701965513e-03  -1.8590151444001569e-03  5.1882302356424825e-05  2.