<?xml version="1.0"?>
<VTKFile type="UnstructuredGrid"  version="0.1"  >
<UnstructuredGrid>
<Piece  NumberOfPoints="1089" NumberOfCells="1024">
<Points>
<DataArray  type="Float64"  NumberOfComponents="3"  format="ascii">0 0 0  0.03125 0 0  0.0625 0 0  0.09375 0 0  0.125 0 0  0.15625 0 0  0.1875 0 0  0.21875 0 0  0.25 0 0  0.28125 0 0  0.3125 0 0  0.34375 0 0  0.375 0 0  0.40625 0 0  0.4375 0 0  0.46875 0 0  0.5 0 0  0.53125 0 0  0.5625 0 0  0.59375 0 0  0.625 0 0  0.65625 0 0  0.6875 0 0  0.71875 0 0  0.75 0 0  0.78125 0 0  0.8125 0 0  0.84375 0 0  0.875 0 0  0.90625 0 0  0.9375 0 0  0.96875 0 0  1 0 0  0 0.03125 0  0.03125 0.03125 0  0.0625 0.03125 0  0.09375 0.03125 0  0.125 0.03125 0  0.15625 0.03125 0  0.1875 0.03125 0  0.21875 0.03125 0  0.25 0.03125 0  0.28125 0.03125 0  0.3125 0.03125 0  0.34375 0.03125 0  0.375 0.03125 0  0.40625 0.03125 0  0.4375 0.03125 0  0.46875 0.03125 0  0.5 0.03125 0  0.53125 0.03125 0  0.5625 0.03125 0  0.59375 0.03125 0  0.625 0.03125 0  0.65625 0.03125 0  0.6875 0.03125 0  0.71875 0.03125 0  0.75 0.03125 0  0.78125 0.03125 0  0.8125 0.03125 0  0.84375 0.03125 0  0.875 0.03125 0  0.90625 0.03125 0  0.9375 0.03125 0  0.96875 0.03125 0  1 0.03125 0  0 0.0625 0  0.03125 0.0625 0  0.0625 0.0625 0  0.09375 0.0625 0  0.125 0.0625 0  0.15625 0.0625 0  0.1875 0.0625 0  0.21875 0.0625 0  0.25 0.0625 0  0.28125 0.0625 0  0.3125 0.0625 0  0.34375 0.0625 0  0.375 0.0625 0  0.40625 0.0625 0  0.4375 0.0625 0  0.46875 0.0625 0  0.5 0.0625 0  0.53125 0.0625 0  0.5625 0.0625 0  0.59375 0.0625 0  0.625 0.0625 0  0.65625 0.0625 0  0.6875 0.0625 0  0.71875 0.0625 0  0.75 0.0625 0  0.78125 0.0625 0  0.8125 0.0625 0  0.84375 0.0625 0  0.875 0.0625 0  0.90625 0.0625 0  0.9375 0.0625 0  0.96875 0.0625 0  1 0.0625 0  0 0.09375 0  0.03125 0.09375 0  0.0625 0.09375 0  0.09375 0.09375 0  0.125 0.09375 0  0.15625 0.09375 0  0.1875 0.09375 0  0.21875 0.09375 0  0.25 0.09375 0  0.28125 0.09375 0  0.3125 0.09375 0  0.34375 0.09375 0  0.375 0.09375 0  0.40625 0.09375 0  0.4375 0.09375 0  0.46875 0.09375 0  0.5 0.09375 0  0.53125 0.09375 0  0.5625 0.09375 0  0.59375 0.09375 0  0.625 0.09375 0  0.65625 0.09375 0  0.6875 0.09375 0  0.71875 0.09375 0  0.75 0.09375 0  0.78125 0.09375 0  0.8125 0.09375 0  0.84375 0.09375 0  0.875 0.09375 0  0.90625 0.09375 0  0.9375 0.09375 0  0.96875 0.09375 0  1 0.09375 0  0 0.125 0  0.03125 0.125 0  0.0625 0.125 0  0.09375 0.125 0  0.125 0.125 0  0.15625 0.125 0  0.1875 0.125 0  0.21875 0.125 0  0.25 0.125 0  0.28125 0.125 0  0.3125 0.125 0  0.34375 0.125 0  0.375 0.125 0  0.40625 0.125 0  0.4375 0.125 0  0.46875 0.125 0  0.5 0.125 0  0.53125 0.125 0  0.5625 0.125 0  0.59375 0.125 0  0.625 0.125 0  0.65625 0.125 0  0.6875 0.125 0  0.71875 0.125 0  0.75 0.125 0  0.78125 0.125 0  0.8125 0.125 0  0.84375 0.125 0  0.875 0.125 0  0.90625 0.125 0  0.9375 0.125 0  0.96875 0.125 0  1 0.125 0  0 0.15625 0  0.03125 0.15625 0  0.0625 0.15625 0  0.09375 0.15625 0  0.125 0.15625 0  0.15625 0.15625 0  0.1875 0.15625 0  0.21875 0.15625 0  0.25 0.15625 0  0.28125 0.15625 0  0.3125 0.15625 0  0.34375 0.15625 0  0.375 0.15625 0  0.40625 0.15625 0  0.4375 0.15625 0  0.46875 0.15625 0  0.5 0.15625 0  0.53125 0.15625 0  0.5625 0.15625 0  0.59375 0.15625 0  0.625 0.15625 0  0.65625 0.15625 0  0.6875 0.15625 0  0.71875 0.15625 0  0.75 0.15625 0  0.78125 0.15625 0  0.8125 0.15625 0  0.84375 0.15625 0  0.875 0.15625 0  0.90625 0.15625 0  0.9375 0.15625 0  0.96875 0.15625 0  1 0.15625 0  0 0.1875 0  0.03125 0.1875 0  0.0625 0.1875 0  0.09375 0.1875 0  0.125 0.1875 0  0.15625 0.1875 0  0.1875 0.1875 0  0.21875 0.1875 0  0.25 0.1875 0  0.28125 0.1875 0  0.3125 0.1875 0  0.34375 0.1875 0  0.375 0.1875 0  0.40625 0.1875 0  0.4375 0.1875 0  0.46875 0.1875 0  0.5 0.1875 0  0.53125 0.1875 0  0.5625 0.1875 0  0.59375 0.1875 0  0.625 0.1875 0  0.65625 0.1875 0  0.6875 0.1875 0  0.71875 0.1875 0  0.75 0.1875 0  0.78125 0.1875 0  0.8125 0.1875 0  0.84375 0.1875 0  0.875 0.1875 0  0.90625 0.1875 0  0.9375 0.1875 0  0.96875 0.1875 0  1 0.1875 0  0 0.21875 0  0.03125 0.21875 0  0.0625 0.21875 0  0.09375 0.21875 0  0.125 0.21875 0  0.15625 0.21875 0  0.1875 0.21875 0  0.21875 0.21875 0  0.25 0.21875 0  0.28125 0.21875 0  0.3125 0.21875 0  0.34375 0.21875 0  0.375 0.21875 0  0.40625 0.21875 0  0.4375 0.21875 0  0.46875 0.21875 0  0.5 0.21875 0  0.53125 0.21875 0  0.5625 0.21875 0  0.59375 0.21875 0  0.625 0.21875 0  0.65625 0.21875 0  0.6875 0.21875 0  0.71875 0.21875 0  0.75 0.21875 0  0.78125 0.21875 0  0.8125 0.21875 0  0.84375 0.21875 0  0.875 0.21875 0  0.90625 0.21875 0  0.9375 0.21875 0  0.96875 0.21875 0  1 0.21875 0  0 0.25 0  0.03125 0.25 0  0.0625 0.25 0  0.09375 0.25 0  0.125 0.25 0  0.15625 0.25 0  0.1875 0.25 0  0.21875 0.25 0  0.25 0.25 0  0.28125 0.25 0  0.3125 0.25 0  0.34375 0.25 0  0.375 0.25 0  0.40625 0.25 0  0.4375 0.25 0  0.46875 0.25 0  0.5 0.25 0  0.53125 0.25 0  0.5625 0.25 0  0.59375 0.25 0  0.625 0.25 0  0.65625 0.25 0  0.6875 0.25 0  0.71875 0.25 0  0.75 0.25 0  0.78125 0.25 0  0.8125 0.25 0  0.84375 0.25 0  0.875 0.25 0  0.90625 0.25 0  0.9375 0.25 0  0.96875 0.25 0  1 0.25 0  0 0.28125 0  0.03125 0.28125 0  0.0625 0.28125 0  0.09375 0.28125 0  0.125 0.28125 0  0.15625 0.28125 0  0.1875 0.28125 0  0.21875 0.28125 0  0.25 0.28125 0  0.28125 0.28125 0  0.3125 0.28125 0  0.34375 0.28125 0  0.375 0.28125 0  0.40625 0.28125 0  0.4375 0.28125 0  0.46875 0.28125 0  0.5 0.28125 0  0.53125 0.28125 0  0.5625 0.28125 0  0.59375 0.28125 0  0.625 0.28125 0  0.65625 0.28125 0  0.6875 0.28125 0  0.71875 0.28125 0  0.75 0.28125 0  0.78125 0.28125 0  0.8125 0.28125 0  0.84375 0.28125 0  0.875 0.28125 0  0.90625 0.28125 0  0.9375 0.28125 0  0.96875 0.28125 0  1 0.28125 0  0 0.3125 0  0.03125 0.3125 0  0.0625 0.3125 0  0.09375 0.3125 0  0.125 0.3125 0  0.15625 0.3125 0  0.1875 0.3125 0  0.21875 0.3125 0  0.25 0.3125 0  0.28125 0.3125 0  0.3125 0.3125 0  0.34375 0.3125 0  0.375 0.3125 0  0.40625 0.3125 0  0.4375 0.3125 0  0.46875 0.3125 0  0.5 0.3125 0  0.53125 0.3125 0  0.5625 0.3125 0  0.59375 0.3125 0  0.625 0.3125 0  0.65625 0.3125 0  0.6875 0.3125 0  0.71875 0.3125 0  0.75 0.3125 0  0.78125 0.3125 0  0.8125 0.3125 0  0.84375 0.3125 0  0.875 0.3125 0  0.90625 0.3125 0  0.9375 0.3125 0  0.96875 0.3125 0  1 0.3125 0  0 0.34375 0  0.03125 0.34375 0  0.0625 0.34375 0  0.09375 0.34375 0  0.125 0.34375 0  0.15625 0.34375 0  0.1875 0.34375 0  0.21875 0.34375 0  0.25 0.34375 0  0.28125 0.34375 0  0.3125 0.34375 0  0.34375 0.34375 0  0.375 0.34375 0  0.40625 0.34375 0  0.4375 0.34375 0  0.46875 0.34375 0  0.5 0.34375 0  0.53125 0.34375 0  0.5625 0.34375 0  0.59375 0.34375 0  0.625 0.34375 0  0.65625 0.34375 0  0.6875 0.34375 0  0.71875 0.34375 0  0.75 0.34375 0  0.78125 0.34375 0  0.8125 0.34375 0  0.84375 0.34375 0  0.875 0.34375 0  0.90625 0.34375 0  0.9375 0.34375 0  0.96875 0.34375 0  1 0.34375 0  0 0.375 0  0.03125 0.375 0  0.0625 0.375 0  0.09375 0.375 0  0.125 0.375 0  0.15625 0.375 0  0.1875 0.375 0  0.21875 0.375 0  0.25 0.375 0  0.28125 0.375 0  0.3125 0.375 0  0.34375 0.375 0  0.375 0.375 0  0.40625 0.375 0  0.4375 0.375 0  0.46875 0.375 0  0.5 0.375 0  0.53125 0.375 0  0.5625 0.375 0  0.59375 0.375 0  0.625 0.375 0  0.65625 0.375 0  0.6875 0.375 0  0.71875 0.375 0  0.75 0.375 0  0.78125 0.375 0  0.8125 0.375 0  0.84375 0.375 0  0.875 0.375 0  0.90625 0.375 0  0.9375 0.375 0  0.96875 0.375 0  1 0.375 0  0 0.40625 0  0.03125 0.40625 0  0.0625 0.40625 0  0.09375 0.40625 0  0.125 0.40625 0  0.15625 0.40625 0  0.1875 0.40625 0  0.21875 0.40625 0  0.25 0.40625 0  0.28125 0.40625 0  0.3125 0.40625 0  0.34375 0.40625 0  0.375 0.40625 0  0.40625 0.40625 0  0.4375 0.40625 0  0.46875 0.40625 0  0.5 0.40625 0  0.53125 0.40625 0  0.5625 0.40625 0  0.59375 0.40625 0  0.625 0.40625 0  0.65625 0.40625 0  0.6875 0.40625 0  0.71875 0.40625 0  0.75 0.40625 0  0.78125 0.40625 0  0.8125 0.40625 0  0.84375 0.40625 0  0.875 0.40625 0  0.90625 0.40625 0  0.9375 0.40625 0  0.96875 0.40625 0  1 0.40625 0  0 0.4375 0  0.03125 0.4375 0  0.0625 0.4375 0  0.09375 0.4375 0  0.125 0.4375 0  0.15625 0.4375 0  0.1875 0.4375 0  0.21875 0.4375 0  0.25 0.4375 0  0.28125 0.4375 0  0.3125 0.4375 0  0.34375 0.4375 0  0.375 0.4375 0  0.40625 0.4375 0  0.4375 0.4375 0  0.46875 0.4375 0  0.5 0.4375 0  0.53125 0.4375 0  0.5625 0.4375 0  0.59375 0.4375 0  0.625 0.4375 0  0.65625 0.4375 0  0.6875 0.4375 0  0.71875 0.4375 0  0.75 0.4375 0  0.78125 0.4375 0  0.8125 0.4375 0  0.84375 0.4375 0  0.875 0.4375 0  0.90625 0.4375 0  0.9375 0.4375 0  0.96875 0.4375 0  1 0.4375 0  0 0.46875 0  0.03125 0.46875 0  0.0625 0.46875 0  0.09375 0.46875 0  0.125 0.46875 0  0.15625 0.46875 0  0.1875 0.46875 0  0.21875 0.46875 0  0.25 0.46875 0  0.28125 0.46875 0  0.3125 0.46875 0  0.34375 0.46875 0  0.375 0.46875 0  0.40625 0.46875 0  0.4375 0.46875 0  0.46875 0.46875 0  0.5 0.46875 0  0.53125 0.46875 0  0.5625 0.46875 0  0.59375 0.46875 0  0.625 0.46875 0  0.65625 0.46875 0  0.6875 0.46875 0  0.71875 0.46875 0  0.75 0.46875 0  0.78125 0.46875 0  0.8125 0.46875 0  0.84375 0.46875 0  0.875 0.46875 0  0.90625 0.46875 0  0.9375 0.46875 0  0.96875 0.46875 0  1 0.46875 0  0 0.5 0  0.03125 0.5 0  0.0625 0.5 0  0.09375 0.5 0  0.125 0.5 0  0.15625 0.5 0  0.1875 0.5 0  0.21875 0.5 0  0.25 0.5 0  0.28125 0.5 0  0.3125 0.5 0  0.34375 0.5 0  0.375 0.5 0  0.40625 0.5 0  0.4375 0.5 0  0.46875 0.5 0  0.5 0.5 0  0.53125 0.5 0  0.5625 0.5 0  0.59375 0.5 0  0.625 0.5 0  0.65625 0.5 0  0.6875 0.5 0  0.71875 0.5 0  0.75 0.5 0  0.78125 0.5 0  0.8125 0.5 0  0.84375 0.5 0  0.875 0.5 0  0.90625 0.5 0  0.9375 0.5 0  0.96875 0.5 0  1 0.5 0  0 0.53125 0  0.03125 0.53125 0  0.0625 0.53125 0  0.09375 0.53125 0  0.125 0.53125 0  0.15625 0.53125 0  0.1875 0.53125 0  0.21875 0.53125 0  0.25 0.53125 0  0.28125 0.53125 0  0.3125 0.53125 0  0.34375 0.53125 0  0.375 0.53125 0  0.40625 0.53125 0  0.4375 0.53125 0  0.46875 0.53125 0  0.5 0.53125 0  0.53125 0.53125 0  0.5625 0.53125 0  0.59375 0.53125 0  0.625 0.53125 0  0.65625 0.53125 0  0.6875 0.53125 0  0.71875 0.53125 0  0.75 0.53125 0  0.78125 0.531
[...]
<PointData  Scalars="u_sol"> 
<DataArray  type="Float64"  Name="u_sol"  format="ascii">-1.5209490543298330e-05  -3.5160817532168429e-05  2.4515867811807877e-04  6.8917416144760905e-04  4.9571298263606086e-03  1.3851592468319192e-02  2.8844446919952041e-02  4.1662131261569077e-02  2.2933142483196573e-02  1.8157867117524963e-02  2.5343511319477131e-02  2.8304022813738793e-02  2.8221027506415478e-02  1.9047116867969241e-02  1.2270446570567192e-03  -2.1737100546735208e-02  -4.2465343628481249e-02  -5.5013333279169532e-02  -5.3837065279305291e-02  -3.7474895541121683e-02  -7.5475066549283432e-03  2.6537168027482280e-02  5.3471646902090345e-02  5.9639163569119850e-02  5.1828238605353495e-02  3.3906206462720190e-02  1.7145566930399130e-02  4.3361247897984430e-03  -6.3706138765314815e-04  -1.7023454780390993e-03  -1.1463614217817339e-03  -1.0374961856769636e-04  2.3901145556427290e-05  -2.1305952783761932e-04  9.3093691777718210e-04  3.8465923107547937e-03  5.1561364451813965e-03  1.8096867521846755e-03  -2.5038266917964822e-02  -5.2625242044268980e-02  -8.5813509444030243e-03  1.4282965892225141e-02  -8.5423398577261934e-03  -5.9126298326139290e-02  -1.3385078702721107e-01  -2.1608252473603967e-01  -2.8946724448558514e-01  -3.4287760204984946e-01  -3.7492516013642835e-01  -3.8542624242833495e-01  -3.7691862681809790e-01  -3.4889237942118778e-01  -3.0206290139451686e-01  -2.3553289409832814e-01  -1.5348996236934645e-01  -6.5734984528710447e-02  1.0009030162211358e-02  5.7324339793941956e-02  7.5015112531438194e-02  7.1611380768879102e-02  5.4879999815918519e-02  3.0181366303478407e-02  1.2746632620767338e-02  3.8389015807687521e-03  -6.8126588688765234e-05  -4.8533767955774599e-05  -3.7143237966906484e-04  1.8058288082457453e-03  6.0643230956466641e-03  1.0162074588275548e-02  1.3084653691395245e-02  1.5668724326262581e-02  2.1685193183129996e-02  -3.1687783236486154e-02  -1.0107527055381567e-01  -1.8981969015093242e-01  -2.9148041143850190e-01  -3.6852146178673878e-01  -4.1954945041433273e-01  -4.4781555913895643e-01  -4.6379970952430000e-01  -4.7004248678441918e-01  -4.7178641518485209e-01  -4.6785975233473731e-01  -4.6024729648241058e-01  -4.4459609770255765e-01  -4.1817653498465651e-01  -3.7062648534914694e-01  -2.9685217072079162e-01  -1.9721062338058801e-01  -9.9105692796392961e-02  -2.9107270536324968e-02  4.4776328310338967e-03  2.4887346990317919e-02  3.2180283007425509e-02  2.1401144338767955e-02  9.8561165240023101e-03  3.3933643501588722e-03  -5.6163766860376320e-04  -6.2249424219430749e-04  3.1110777042766069e-03  7.7266530214928405e-03  6.7631705041556302e-03  2.8477555903128364e-03  2.0630589194436808e-02  -2.8797863396170607e-03  -1.2994950756829446e-01  -2.6457461718843267e-01  -3.6152249586219226e-01  -4.1244982591887863e-01  -4.3395841973288241e-01  -4.4004151490276822e-01  -4.4091737116124818e-01  -4.3968679068419353e-01  -4.3786742570973886e-01  -4.3525941910857463e-01  -4.3263527505110422e-01  -4.3081759923225343e-01  -4.3168801745622676e-01  -4.3531805698994358e-01  -4.3777901585038281e-01  -4.2380694796503415e-01  -3.7137704043430297e-01  -2.6646252599879000e-01  -1.3892954628074702e-01  -4.4992487275618026e-02  -1.2129637996852674e-02  5.2509002216272020e-03  1.4454560032495628e-02  1.0192403405477699e-02  2.0515565315353430e-03  -4.6611122911908580e-04  -1.0689558378771400e-03  5.3353932114188233e-03  1.0262465760723483e-02  2.1139287300850703e-03  -1.5047246925446820e-02  -7.8684249185727931e-02  -2.0307410343177673e-01  -3.0705627957260190e-01  -3.6922361909812174e-01  -3.9394943357091389e-01  -3.9573779782738400e-01  -3.9164726427657043e-01  -3.8698019435882075e-01  -3.8568124552877375e-01  -3.8476427271524360e-01  -3.8497401206493337e-01  -3.8319122241405584e-01  -3.8106049930996566e-01  -3.7681231595380787e-01  -3.7370145574814756e-01  -3.7280150569449405e-01  -3.8085835299400356e-01  -3.9915640481877823e-01  -4.1877343439338105e-01  -4.0328368231909978e-01  -3.1317650023193311e-01  -1.6315100259335386e-01  -4.3746887370490178e-02  -8.9423180895278846e-03  2.2776508817628780e-03  5.7758768690102068e-03  4.4184417990940873e-03  -6.9197301597869517e-04  -1.0514710268894039e-03  6.1857449787004141e-03  3.4926251215830219e-03  -9.3562053302145721e-03  -6.0674473165951842e-02  -1.7442584940276215e-01  -2.8479190283684308e-01  -3.4466289335103434e-01  -3.6217937051692395e-01  -3.5830300838216911e-01  -3.5401963837020461e-01  -3.5328297401963948e-01  -3.5739293954779311e-01  -3.6179919810741146e-01  -3.6586384647543557e-01  -3.6778054203091903e-01  -3.6863332014913536e-01  -3.6770577002925042e-01  -3.6602210073500424e-01  -3.6235091422965165e-01  -3.5710240099309576e-01  -3.4928664528950354e-01  -3.4471568841120259e-01  -3.5241921423352940e-01  -3.7876342629052101e-01  -3.9062803776876598e-01  -3.2360534313695583e-01  -1.6387403789639937e-01  -3.1780184655772183e-02  -2.6291689051432137e-03  4.8185720028203760e-03  -1.0189455876242379e-03  -1.3233828559839234e-04  -7.7611886960005040e-04  6.2292451669664836e-03  -6.6987320604676619e-03  -5.4147061336399141e-02  -1.5929542002694036e-01  -2.7013473472010369e-01  -3.2089752207962230e-01  -3.2591257614716501e-01  -3.1818737530102648e-01  -3.1474133166554208e-01  -3.1951033349417213e-01  -3.2564194229624982e-01  -3.3065347390032135e-01  -3.3183814019274371e-01  -3.3271433132789369e-01  -3.3195174649379117e-01  -3.3201169083746412e-01  -3.3088535072398073e-01  -3.3095422836610494e-01  -3.3076269679754283e-01  -3.3259647734063963e-01  -3.3374676492543554e-01  -3.3243569962171698e-01  -3.2507127479182224e-01  -3.2193129169605628e-01  -3.4006658739826950e-01  -3.6127142793578199e-01  -3.0413473476563213e-01  -1.3645400278163206e-01  -1.1196277832786521e-02  -1.9765767377427339e-03  5.7025786545707056e-03  -4.9144724000912043e-04  1.2460486104979599e-03  -8.7006373592632186e-04  -3.4090812074549691e-02  -1.1732554411248257e-01  -2.2229130825225199e-01  -2.7880459391980983e-01  -2.8728639725955685e-01  -2.8588510683641444e-01  -2.8499337766939414e-01  -2.9287264805606106e-01  -2.9796645528234733e-01  -3.0020664436024957e-01  -2.9967194085485338e-01  -3.0132300322289757e-01  -3.0286918165576693e-01  -3.0496693054557539e-01  -3.0562653665063716e-01  -3.0608546478387183e-01  -3.0501909756256523e-01  -3.0383716259012439e-01  -3.0146255026995644e-01  -3.0063795065326199e-01  -3.0099283428741924e-01  -3.0322407826587672e-01  -2.9929548566322234e-01  -2.9482012196691532e-01  -3.0813791621066677e-01  -3.2916428717197116e-01  -2.6085741493509779e-01  -8.4938130954392121e-02  5.5947108610490742e-03  -3.9578650788460473e-04  -7.0310552945118535e-04  3.1916756018214470e-03  -1.5398765255219602e-02  -7.4260249063898359e-02  -1.6788273615579552e-01  -2.3913941507948719e-01  -2.5634620465184033e-01  -2.5475517185000296e-01  -2.5139864132088774e-01  -2.5688123941385804e-01  -2.6147906437914087e-01  -2.6113106295067928e-01  -2.6356294498006766e-01  -2.6736265820873722e-01  -2.7177163926626374e-01  -2.7313608020587338e-01  -2.7467856852586475e-01  -2.7460436819205775e-01  -2.7558335839762377e-01  -2.7547022839986302e-01  -2.7654602445780346e-01  -2.7659153133006892e-01  -2.7691872288595820e-01  -2.7548508066181104e-01  -2.7456732718281895e-01  -2.7384035391173983e-01  -2.6955838629407036e-01  -2.6549743931353059e-01  -2.8110041564900901e-01  -2.9381588203243530e-01  -1.9217263249259967e-01  -2.2191029547224822e-02  -5.1532882817819439e-03  1.1797738142308033e-03  4.9460069037406207e-03  -2.9752286618037537e-02  -1.0523274967613443e-01  -1.8410886702321708e-01  -2.1857870093694373e-01  -2.1854376724441268e-01  -2.1688158050643899e-01  -2.2257114787688376e-01  -2.3019929810997339e-01  -2.3028478752948581e-01  -2.3513880054058897e-01  -2.3976015862471087e-01  -2.4208272589552629e-01  -2.4179711982098906e-01  -2.4291503845647114e-01  -2.4412559624861438e-01  -2.4561214322152991e-01  -2.4616088039045672e-01  -2.4657852776381689e-01  -2.4604760384612917e-01  -2.4583749911033190e-01  -2.4517859147812263e-01  -2.4572987544121089e-01  -2.4562955302045247e-01  -2.4676681331147468e-01  -2.4530111342675145e-01  -2.3883113619465088e-01  -2.3580665173359922e-01  -2.5779868263594713e-01  -2.4354891509836207e-01  -1.0044872810162600e-01  2.3972883038770709e-02  -3.5632806140041668e-03  6.2572688788266684e-03  -4.3468310732677783e-02  -1.1752820475701993e-01  -1.7200438574975235e-01  -1.8547916711072096e-01  -1.8454361945522471e-01  -1.8953817177597407e-01  -1.9459680308906968e-01  -1.9559176926389543e-01  -1.9844361531767887e-01  -2.0368541277729135e-01  -2.0339268054612214e-01  -2.0542014305355483e-01  -2.0878105767722258e-01  -2.1303536602391374e-01  -2.1447624405061502e-01  -2.1625708480793562e-01  -2.1672601400661132e-01  -2.1818005529900722e-01  -2.1854766197548842e-01  -2.1966397904338575e-01  -2.1931448942067908e-01  -2.1901116178322011e-01  -2.1705254652962111e-01  -2.1588274498970669e-01  -2.1646244993711863e-01  -2.1558721011904253e-01  -2.0644837319034556e-01  -2.0986899963079275e-01  -2.3192265212240998e-01  -1.5838931515341476e-01  -1.1606470230398496e-02  -3.7573205842419298e-03  5.9013897874487208e-03  -4.6695474344867878e-02  -1.0972405817792094e-01  -1.4505271869493822e-01  -1.4957276738975342e-01  -1.5230419059580314e-01  -1.5738497146954003e-01  -1.6212298916137535e-01  -1.6629924353536379e-01  -1.7154279493349006e-01  -1.7325382469655209e-01  -1.7598366386540046e-01  -1.8150208399424186e-01  -1.8300978720257208e-01  -1.8315833533039624e-01  -1.8349092371532008e-01  -1.8521418706479001e-01  -1.8615670360508169e-01  -1.8731278443862528e-01  -1.8760923790442835e-01  -1.8821334214336985e-01  -1.8853073710884366e-01  -1.8939103238120419e-01  -1.9003783818715161e-01  -1.8917814230455382e-01  -1.8702234701700976e-01  -1.8665294582613737e-01  -1.8329431956662318e-01  -1.7429961154169460e-01  -1.9042188859535364e-01  -1.7919788232260159e-01  -5.7207286424697211e-02  1.3855203043439639e-02  6.0332931059333839e-03  -4.1498853933974400e-02  -9.0835287564176456e-02  -1.1317706746917307e-01  -1.1677620713736356e-01  -1.2259904400694555e-01  -1.2861294162576953e-01  -1.3227926827879383e-01  -1.3508976035465889e-01  -1.3815744660696916e-01  -1.4011516800952237e-01  -1.4466770501867854e-01  -1.4521966691827304e-01  -1.4577387511833692e-01  -1.4970976810916747e-01  -1.5347512233404434e-01  -1.5564060021671133e-01  -1.5710878290370753e-01  -1.5846666047081975e-01  -1.5972380112131926e-01  -1.6063564256798360e-01  -1.6122816877905843e-01  -1.6095946761147492e-01  -1.6071335593823463e-01  -1.6043921259442603e-01  -1.5998133309697232e-01  -1.5813981342406710e-01  -1.5680198025911679e-01  -1.4806841542092894e-01  -1.4845842631841055e-01  -1.6077807814706682e-01  -7.0982323003554115e-02  2.5429591226986969e-02  5.1894535271562224e-03  -3.0857887295434060e-02  -6.6869705767458515e-02  -8.1949577089666117e-02  -8.6116100952656399e-02  -9.2770624322188827e-02  -9.7013387325080996e-02  -1.0131536082733278e-01  -1.0584205741138479e-01  -1.0909695258112906e-01  -1.1230950625569784e-01  -1.1514913658715015e-01  -1.1636635361532299e-01  -1.2170235959372309e-01  -1.2368396800436664e-01  -1.2335778693001423e-01  -1.2387411783932196e-01  -1.2563325457043123e-01  -1.2697465759283011e-01  -1.2849836837803172e-01  -1.2956982114628937e-01  -1.3108643652501756e-01  -1.3220079460854270e-01  -1.3334828309057672e-01  -1.3307952573586510e-01  -1.3245427020923586e-01  -1.3055357590896821e-01  -1.2986388208963703e-01  -1.2388635292912525e-01  -1.1515819539028307e-01  -1.2677506429256033e-01  -7.3160147053035501e-02  2.1423298496798401e-02  4.7083373169726521e-03  -1.8021036489880363e-02  -4.2525062533498532e-02  -5.2751680978646395e-02  -5.7813456990959709e-02  -6.3861259928573139e-02  -6.8185240107392589e-02  -7.1899361635129527e-02  -7.4340301872894254e-02  -7.6816018947600470e-02  -7.9601168989039101e-02  -8.1365609321977256e-02  -8.4101230862010282e-02  -8.6111949071942487e-02  -8.5328109458190735e-02  -8.9501755456602106e-02  -9.3441370503772311e-02  -9.5994938923349094e-02  -9.7488239740788837e-02  -9.9461486639713589e-02  -1.0087705277322030e-01  -1.0253298076162494e-01  -1.0336111825314005e-01  -1.0458762209136704e-01  -1.0524735462301606e-01  -1.0607653793583859e-01  -1.0470706819341137e-01  -1.0315578754330301e-01  -1.0026337649761420e-01  -8.9600470857605974e-02  -9.4446760589200707e-02  -6.3632617172806286e-02  1.5201516188700652e-02  3.4645235047814750e-03  -4.9685328246342458e-03  -1.9228604521029730e-02  -2.5788276255235113e-02  -3.0675731759116240e-02  -3.5389974040908538e-02  -3.8822191157600751e-02  -4.2328743657698710e-02  -4.5457082791788450e-02  -4.8232466260929814e-02  -5.0508039236202715e-02  -5.2558686405245449e-02  -5.5143717484949110e-02  -5.6459087314896211e-02  -6.0050183633877860e-02  -6.3736897502239015e-02  -6.2551514635827032e-02  -6.3699384928970426e-02  -6.5659877692059540e-02  -6.8083645583832800e-02  -7.0053673061048025e-02  -7.2709486209265498e-02  -7.4836907480154508e-02  -7.7158041059061919e-02  -7.8394381896231477e-02  -7.9468185088640717e-02  -7.9724704272694236e-02  -7.8749957640804530e-02  -7.7332074366603748e-02  -6.8763059775744373e-02  -6.8819244183710729e-02  -5.3885137637015267e-02  9.1184668565242790e-03  2.0676325615329870e-03  7.1975422566104936e-03  2.8097685816710822e-03  -3.8300086193656014e-04  -4.5230405757382243e-03  -7.6045013884969712e-03  -1.0381062214983734e-02  -1.2477913523246372e-02  -1.4275226767610526e-02  -1.6116843667532538e-02  -1.7826139684453440e-02  -1.9522619764095320e-02  -2.1097806213707986e-02  -2.2592802795965122e-02  -2.4771918433770929e-02  -2.4509734164690457e-02  -2.7324744640144363e-02  -3.2974043110776674e-02  -3.5110833582044039e-02  -3.7860735333473651e-02  -4.0270345917709408e-02  -4.3309535257454401e-02  -4.5914866873883783e-02  -4.8956697569422225e-02  -5.1626921648022593e-02  -5.4098021722919561e-02  -5.5606278024895379e-02  -5.5787752799969753e-02  -5.6114340710396254e-02  -5.0952619339534606e-02  -4.9413894167190532e-02  -4.3487227114357659e-02  5.2415965890333129e-03  -2.5513917130324788e-04  1.8182210545038477e-02  2.3779014696199186e-02  2.4253097697118503e-02  2.1130842510358756e-02  1.9564300278619787e-02  1.7408008010752984e-02  1.5486017311460354e-02  1.3774023834330910e-02  1.2407216091172960e-02  1.1081935013493702e-02  9.7083232379476074e-03  8.3311994049929880e-03  6.7092444203272700e-03  5.0354464342305654e-03  2.7362829996339490e-03  -1.4234867111056124e-03  -1.5542599057285493e-03  -1.9603753477191858e-03  -6.2400728822187721e-03  -9.3690065965521280e-03  -1.3511467507043143e-02  -1.7271851323794735e-02  -2.1485366322842703e-02  -2.5213311217182163e-02  -2.8949619219393097e-02  -3.2272844654174161e-02  -3.4508557554833820e-02  -3.6410699775653990e-02  -3.5100324901173846e-02  -3.4330530908684029e-02  -3.5045297671579614e-02  2.5804635244664059e-03  -2.9195705324006446e-03  2.7416519148642501e-02  4.4616921332698019e-02  4.8669427445199545e-02  4.7011051481713535e-02  4.6748768808315730e-02  4.6205950693703382e-02  4.5961879651503029e-02  4.5158192714457403e-02  4.4334938752641093e-02  4.3634682063868578e-02  4.2938030436942526e-02  4.2207499719489436e-02  4.1213905490075885e-02  4.0169546910991061e-02  3.8598754821290375e-02  3.7984628769338141e-02  3.5948010686869473e-02  2.9251309869132356e-02  2.4720422976119403e-02  2.1823014052231530e-02  1.6473181043796706e-02  1.1940366839264241e-02  6.2534157326496337e-03  1.0444780833236509e-03  -4.5191265272771612e-03  -9.5181491993858221e-03  -1.4161117088688344e-02  -1.8268351427760274e-02  -2.0677794811492300e-02  -2.2144609132733389e-02  -2.7411255083512064e-02  9.2652643809624537e-04  -6.3156295917133976e-03  3.4809498840938084e-02  6.4814707389016304e-02  7.3714331650569356e-02  7.3010726163032544e-02  7.3375804078835066e-02  7.2963831309591318e-02  7.2319901101042319e-02  7.2408248199826150e-02  7.2507425609878801e-02  7.2399257177184567e-02  7.2029783796973543e-02  7.1733673831660363e-02  7.0889906624571730e-02  7.0157911160504946e-02  6.8252063337070748e-02  6.6039440495611348e-02  6.1792718433865197e-02  5.9401373397364503e-02  5.8406828875998608e-02  5.2785322826611795e-02  4.6329503319615731e-02  4.1265361737910573e-02  3.3961017237384886e-02  2.7479146200847831e-02  1.9730500761868365e-02  1.2711574847567344e-02  5.4011565281462904e-03  -1.1519481172190421e-03  -7.2656327926133137e-03  -1.1790516914781420e-02  -2.1181024299800594e-02  -2.2105557046604027e-04  -8.9964948627180488e-03  3.8935249554816316e-02  8.4491596070227395e-02  9.9070378617104465e-02  1.0034049034874991e-01  1.0074212578321273e-01  1.0267203976431311e-01  1.0380128223798823e-01  1.0404831474904921e-01  1.0421995607393714e-01  1.0494350206053400e-01  1.0527320753380279e-01  1.0591387517474850e-01  1.0547858146015850e-01  1.0542623387127001e-01  1.0411802953110144e-01  1.0284870741113572e-01  1.0069341387282982e-01  9.8161965271869170e-02  9.1000801073785526e-02  8.3253085260737492e-02  7.8247671559982704e-02  7.1016052421858475e-02  6.1682643513209824e-02  5.3990873935583474e-02  4.3945952461249597e-02  3.4877575092444900e-02  2.4500599614786824e-02  1.5175081607375929e-02  5.4559964662275161e-03  -2.6903759913237931e-03  -1.5469745777612396e-02  -8.9876892807716903e-04  -1.0337496141144702e-02  3.8998803482174139e-02  9.9527259346856398e-02  1.2458349047324080e-01  1.2778589343716551e-01  1.2749544046874614e-01  1.2808596108492323e-01  1.2853332157490299e-01  1.3043934447792843e-01  1.3182308681318289e-01  1.3332746807163903e-01  1.3387053032336294e-01  1.3521259675963207e-01  1.3536466613446274e-01  1.3558720402045357e-01  1.3449680543936141e-01  1.3298344943644674e-01  1.2944915045386637e-01  1.2484930764892721e-01  1.1962970267350642e-01  1.1653103956686547e-01  1.1007559609942794e-01  1.0006353151372639e-01  9.0945076124497898e-02  8.1230244973243049e-02  6.8111242710612196e-02  5.7128968880451700e-02  4.3501981003558877e-02  3.1134576125700648e-02  1.7669716505207992e-02  5.5575485192758513e-03  -1.0512961028163986e-02  -1.1814691341682708e-03  -7.8771700203789895e-03  3.1821389646876724e-02  1.0693659143778098e-01  1.4708299677530612e-01  1.5659111225119515e-01  1.5591152630244140e-01  1.5867803925538246e-01  1.6092419323727039e-01  1.6201458820693090e-01  1.6303727233708049e-01  1.6578691208453095e-01  1.6751761136838911e-01  1.6954228859611439e-01  1.7069817979239404e-01  1.7150544170156673e-01  1.7107861882168793e-01  1.6997361284514570e-01  1.6762553880476258e-01  1.6465825542491214e-01  1.6011670991949792e-01  1.5238394314437470e-01  1.4104934315741255e-01  1.3087905862090918e-01  1.2108602614719555e-01  1.0792895763848646e-01  9.3397923800628849e-02  8.0064434672841467e-02  6.2334723378183840e-02  4.7109393328232003e-02  2.9566779832820064e-02  1.3014254841668899e-02  -6.1517449935271258e-03  -1.1147869083273883e-03  -3.3883856919950956e-03  1.8603169756190072e-02  9.7536665821582894e-02  1.6242453565507714e-01  1.8274598882414511e-01  1.8338900126987784e-01  1.8189661889632813e-01  1.8322545306195065e-01  1.8736268964325328e-01  1.8985507274359448e-01  1.9270923517594402e-01  1.9552538617058987e-01  1.9823631528634847e-01  2.0042095306758501e-01  2.0201805710308524e-01  2.0245310042959247e-01  2.0161319821813861e-01  1.9909725039267814e-01  1.9467548486623906e-01  1.8807743724129342e-01  1.8021894152022336e-01  1.7289167696467336e-01  1.6481024276165077e-01  1.5251909287650453e-01  1.3551765217444794e-01  1.2008808931174396e-01  1.0327998512607710e-01  8.1826123081143926e-02  6.3510323661939719e-02  4.1079082806799221e-02  1.9724019033195671e-02  -3.3067195422067817e-03  -1.0461800255379071e-03  -3.0435866644336676e-04  5.5545961577515039e-04  7.6331112433133258e-02  1.6168269950334832e-01  2.0519070302430334e-01  2.1291355884168769e-01  2.1440418369056735e-01  2.1539901189819069e-01  2.1728895316323574e-01  2.2072014086452504e-01  2.2501828759483855e-01  2.2941108394904713e-01  2.3382045424330977e-01  2.3693121899827288e-01  2.3961068950820569e-01  2.4046884398329935e-01  2.