<?xml version="1.0"?>
<VTKFile type="UnstructuredGrid"  version="0.1"  >
<UnstructuredGrid>
<Piece  NumberOfPoints="16641" NumberOfCells="16384">
<Points>
<DataArray  type="Float64"  NumberOfComponents="3"  format="ascii">0 0 0  0.0078125 0 0  0.015625 0 0  0.0234375 0 0  0.03125 0 0  0.0390625 0 0  0.046875 0 0  0.0546875 0 0  0.0625 0 0  0.0703125 0 0  0.078125 0 0  0.0859375 0 0  0.09375 0 0  0.1015625 0 0  0.109375 0 0  0.1171875 0 0  0.125 0 0  0.1328125 0 0  0.140625 0 0  0.1484375 0 0  0.15625 0 0  0.1640625 0 0  0.171875 0 0  0.1796875 0 0  0.1875 0 0  0.1953125 0 0  0.203125 0 0  0.2109375 0 0  0.21875 0 0  0.2265625 0 0  0.234375 0 0  0.2421875 0 0  0.25 0 0  0.2578125 0 0  0.265625 0 0  0.2734375 0 0  0.28125 0 0  0.2890625 0 0  0.296875 0 0  0.3046875 0 0  0.3125 0 0  0.3203125 0 0  0.328125 0 0  0.3359375 0 0  0.34375 0 0  0.3515625 0 0  0.359375 0 0  0.3671875 0 0  0.375 0 0  0.3828125 0 0  0.390625 0 0  0.3984375 0 0  0.40625 0 0  0.4140625 0 0  0.421875 0 0  0.4296875 0 0  0.4375 0 0  0.4453125 0 0  0.453125 0 0  0.4609375 0 0  0.46875 0 0  0.4765625 0 0  0.484375 0 0  0.4921875 0 0  0.5 0 0  0.5078125 0 0  0.515625 0 0  0.5234375 0 0  0.53125 0 0  0.5390625 0 0  0.546875 0 0  0.5546875 0 0  0.5625 0 0  0.5703125 0 0  0.578125 0 0  0.5859375 0 0  0.59375 0 0  0.6015625 0 0  0.609375 0 0  0.6171875 0 0  0.625 0 0  0.6328125 0 0  0.640625 0 0  0.6484375 0 0  0.65625 0 0  0.6640625 0 0  0.671875 0 0  0.6796875 0 0  0.6875 0 0  0.6953125 0 0  0.703125 0 0  0.7109375 0 0  0.71875 0 0  0.7265625 0 0  0.734375 0 0  0.7421875 0 0  0.75 0 0  0.7578125 0 0  0.765625 0 0  0.7734375 0 0  0.78125 0 0  0.7890625 0 0  0.796875 0 0  0.8046875 0 0  0.8125 0 0  0.8203125 0 0  0.828125 0 0  0.8359375 0 0  0.84375 0 0  0.8515625 0 0  0.859375 0 0  0.8671875 0 0  0.875 0 0  0.8828125 0 0  0.890625 0 0  0.8984375 0 0  0.90625 0 0  0.9140625 0 0  0.921875 0 0  0.9296875 0 0  0.9375 0 0  0.9453125 0 0  0.953125 0 0  0.9609375 0 0  0.96875 0 0  0.9765625 0 0  0.984375 0 0  0.9921875 0 0  1 0 0  0 0.0078125 0  0.0078125 0.0078125 0  0.015625 0.0078125 0  0.0234375 0.0078125 0  0.03125 0.0078125 0  0.0390625 0.0078125 0  0.046875 0.0078125 0  0.0546875 0.0078125 0  0.0625 0.0078125 0  0.0703125 0.0078125 0  0.078125 0.0078125 0  0.0859375 0.0078125 0  0.09375 0.0078125 0  0.1015625 0.0078125 0  0.109375 0.0078125 0  0.1171875 0.0078125 0  0.125 0.0078125 0  0.1328125 0.0078125 0  0.140625 0.0078125 0  0.1484375 0.0078125 0  0.15625 0.0078125 0  0.1640625 0.0078125 0  0.171875 0.0078125 0  0.1796875 0.0078125 0  0.1875 0.0078125 0  0.1953125 0.0078125 0  0.203125 0.0078125 0  0.2109375 0.0078125 0  0.21875 0.0078125 0  0.2265625 0.0078125 0  0.234375 0.0078125 0  0.2421875 0.0078125 0  0.25 0.0078125 0  0.2578125 0.0078125 0  0.265625 0.0078125 0  0.2734375 0.0078125 0  0.28125 0.0078125 0  0.2890625 0.0078125 0  0.296875 0.0078125 0  0.3046875 0.0078125 0  0.3125 0.0078125 0  0.3203125 0.0078125 0  0.328125 0.0078125 0  0.3359375 0.0078125 0  0.34375 0.0078125 0  0.3515625 0.0078125 0  0.359375 0.0078125 0  0.3671875 0.0078125 0  0.375 0.0078125 0  0.3828125 0.0078125 0  0.390625 0.0078125 0  0.3984375 0.0078125 0  0.40625 0.0078125 0  0.4140625 0.0078125 0  0.421875 0.0078125 0  0.4296875 0.0078125 0  0.4375 0.0078125 0  0.4453125 0.0078125 0  0.453125 0.0078125 0  0.4609375 0.0078125 0  0.46875 0.0078125 0  0.4765625 0.0078125 0  0.484375 0.0078125 0  0.4921875 0.0078125 0  0.5 0.0078125 0  0.5078125 0.0078125 0  0.515625 0.0078125 0  0.5234375 0.0078125 0  0.53125 0.0078125 0  0.5390625 0.0078125 0  0.546875 0.0078125 0  0.5546875 0.0078125 0  0.5625 0.0078125 0  0.5703125 0.0078125 0  0.578125 0.0078125 0  0.5859375 0.0078125 0  0.59375 0.0078125 0  0.6015625 0.0078125 0  0.609375 0.0078125 0  0.6171875 0.0078125 0  0.625 0.0078125 0  0.6328125 0.0078125 0  0.640625 0.0078125 0  0.6484375 0.0078125 0  0.65625 0.0078125 0  0.6640625 0.0078125 0  0.671875 0.0078125 0  0.6796875 0.0078125 0  0.6875 0.0078125 0  0.6953125 0.0078125 0  0.703125 0.0078125 0  0.7109375 0.0078125 0  0.71875 0.0078125 0  0.7265625 0.0078125 0  0.734375 0.0078125 0  0.7421875 0.0078125 0  0.75 0.0078125 0  0.7578125 0.0078125 0  0.765625 0.0078125 0  0.7734375 0.0078125 0  0.78125 0.0078125 0  0.7890625 0.0078125 0  0.796875 0.0078125 0  0.8046875 0.0078125 0  0.8125 0.0078125 0  0.8203125 0.0078125 0  0.828125 0.0078125 0  0.8359375 0.0078125 0  0.84375 0.0078125 0  0.8515625 0.0078125 0  0.859375 0.0078125 0  0.8671875 0.0078125 0  0.875 0.0078125 0  0.8828125 0.0078125 0  0.890625 0.0078125 0  0.8984375 0.0078125 0  0.90625 0.0078125 0  0.9140625 0.0078125 0  0.921875 0.0078125 0  0.9296875 0.0078125 0  0.9375 0.0078125 0  0.9453125 0.0078125 0  0.953125 0.0078125 0  0.9609375 0.0078125 0  0.96875 0.0078125 0  0.9765625 0.0078125 0  0.984375 0.0078125 0  0.9921875 0.0078125 0  1 0.0078125 0  0 0.015625 0  0.0078125 0.015625 0  0.015625 0.015625 0  0.0234375 0.015625 0  0.03125 0.015625 0  0.0390625 0.015625 0  0.046875 0.015625 0  0.0546875 0.015625 0  0.0625 0.015625 0  0.0703125 0.015625 0  0.078125 0.015625 0  0.0859375 0.015625 0  0.09375 0.015625 0  0.1015625 0.015625 0  0.109375 0.015625 0  0.1171875 0.015625 0  0.125 0.015625 0  0.1328125 0.015625 0  0.140625 0.015625 0  0.1484375 0.015625 0  0.15625 0.015625 0  0.1640625 0.015625 0  0.171875 0.015625 0  0.1796875 0.015625 0  0.1875 0.015625 0  0.1953125 0.015625 0  0.203125 0.015625 0  0.2109375 0.015625 0  0.21875 0.015625 0  0.2265625 0.015625 0  0.234375 0.015625 0  0.2421875 0.015625 0  0.25 0.015625 0  0.2578125 0.015625 0  0.265625 0.015625 0  0.2734375 0.015625 0  0.28125 0.015625 0  0.2890625 0.015625 0  0.296875 0.015625 0  0.3046875 0.015625 0  0.3125 0.015625 0  0.3203125 0.015625 0  0.328125 0.015625 0  0.3359375 0.015625 0  0.34375 0.015625 0  0.3515625 0.015625 0  0.359375 0.015625 0  0.3671875 0.015625 0  0.375 0.015625 0  0.3828125 0.015625 0  0.390625 0.015625 0  0.3984375 0.015625 0  0.40625 0.015625 0  0.4140625 0.015625 0  0.421875 0.015625 0  0.4296875 0.015625 0  0.4375 0.015625 0  0.4453125 0.015625 0  0.453125 0.015625 0  0.4609375 0.015625 0  0.46875 0.015625 0  0.4765625 0.015625 0  0.484375 0.015625 0  0.4921875 0.015625 0  0.5 0.015625 0  0.5078125 0.015625 0  0.515625 0.015625 0  0.5234375 0.015625 0  0.53125 0.015625 0  0.5390625 0.015625 0  0.546875 0.015625 0  0.5546875 0.015625 0  0.5625 0.015625 0  0.5703125 0.015625 0  0.578125 0.015625 0  0.5859375 0.015625 0  0.59375 0.015625 0  0.6015625 0.015625 0  0.609375 0.015625 0  0.6171875 0.015625 0  0.625 0.015625 0  0.6328125 0.015625 0  0.640625 0.015625 0  0.6484375 0.015625 0  0.65625 0.015625 0  0.6640625 0.015625 0  0.671875 0.015625 0  0.6796875 0.015625 0  0.6875 0.015625 0  0.6953125 0.015625 0  0.703125 0.015625 0  0.7109375 0.015625 0  0.71875 0.015625 0  0.7265625 0.015625 0  0.734375 0.015625 0  0.7421875 0.015625 0  0.75 0.015625 0  0.7578125 0.015625 0  0.765625 0.015625 0  0.7734375 0.015625 0  0.78125 0.015625 0  0.7890625 0.015625 0  0.796875 0.015625 0  0.8046875 0.015625 0  0.8125 0.015625 0  0.8203125 0.015625 0  0.828125 0.015625 0  0.8359375 0.015625 0  0.84375 0.015625 0  0.8515625 0.015625 0  0.859375 0.015625 0  0.8671875 0.015625 0  0.875 0.015625 0  0.8828125 0.015625 0  0.890625 0.015625 0  0.8984375 0.015625 0  0.90625 0.015625 0  0.9140625 0.015625 0  0.921875 0.015625 0  0.9296875 0.015625 0  0.9375 0.015625 0  0.9453125 0.015625 0  0.953125 0.015625 0  0.9609375 0.015625 0  0.96875 0.015625 0  0.9765625 0.015625 0  0.984375 0.015625 0  0.9921875 0.015625 0  1 0.015625 0  0 0.0234375 0  0.0078125 0.0234375 0  0.015625 0.0234375 0  0.0234375 0.0234375 0  0.03125 0.0234375 0  0.0390625 0.0234375 0  0.046875 0.0234375 0  0.0546875 0.0234375 0  0.0625 0.0234375 0  0.0703125 0.0234375 0  0.078125 0.0234375 0  0.0859375 0.0234375 0  0.09375 0.0234375 0  0.1015625 0.0234375 0  0.109375 0.0234375 0  0.1171875 0.0234375 0  0.125 0.0234375 0  0.1328125 0.0234375 0  0.140625 0.0234375 0  0.1484375 0.0234375 0  0.15625 0.0234375 0  0.1640625 0.0234375 0  0.171875 0.0234375 0  0.1796875 0.0234375 0  0.1875 0.0234375 0  0.1953125 0.0234375 0  0.203125 0.0234375 0  0.2109375 0.0234375 0  0.21875 0.0234375 0  0.2265625 0.0234375 0  0.234375 0.0234375 0  0.2421875 0.0234375 0  0.25 0.0234375 0  0.2578125 0.0234375 0  0.265625 0.0234375 0  0.2734375 0.0234375 0  0.28125 0.0234375 0  0.2890625 0.0234375 0  0.296875 0.0234375 0  0.3046875 0.0234375 0  0.3125 0.0234375 0  0.3203125 0.0234375 0  0.328125 0.0234375 0  0.3359375 0.0234375 0  0.34375 0.0234375 0  0.3515625 0.0234375 0  0.359375 0.0234375 0  0.3671875 0.0234375 0  0.375 0.0234375 0  0.3828125 0.0234375 0  0.390625 0.0234375 0  0.3984375 0.0234375 0  0.40625 0.0234375 0  0.4140625 0.0234375 0  0.421875 0.0234375 0  0.4296875 0.0234375 0  0.4375 0.0234375 0  0.4453125 0.0234375 0  0.453125 0.0234375 0  0.4609375 0.0234375 0  0.46875 0.0234375 0  0.4765625 0.0234375 0  0.484375 0.0234375 0  0.4921875 0.0234375 0  0.5 0.0234375 0  0.5078125 0.0234375 0  0.515625 0.0234375 0  0.5234375 0.0234375 0  0.53125 0.0234375 0  0.5390625 0.0234375 0  0.546875 0.0234375 0  0.5546875 0.0234375 0  0.5625 0.0234375 0  0.5703125 0.0234375 0  0.578125 0.0234375 0  0.5859375 0.0234375 0  0.59375 0.0234375 0  0.6015625 0.0234375 0  0.609375 0.0234375 0  0.6171875 0.0234375 0  0.625 0.0234375 0  0.6328125 0.0234375 0  0.640625 0.0234375 0  0.6484375 0.0234375 0  0.65625 0.0234375 0  0.6640625 0.0234375 0  0.671875 0.0234375 0  0.6796875 0.0234375 0  0.6875 0.0234375 0  0.6953125 0.0234375 0  0.703125 0.0234375 0  0.7109375 0.0234375 0  0.71875 0.0234375 0  0.7265625 0.0234375 0  0.734375 0.0234375 0  0.7421875 0.0234375 0  0.75 0.0234375 0  0.7578125 0.0234375 0  0.765625 0.0234375 0  0.7734375 0.0234375 0  0.78125 0.0234375 0  0.7890625 0.0234375 0  0.796875 0.0234375 0  0.8046875 0.0234375 0  0.8125 0.0234375 0  0.8203125 0.0234375 0  0.828125 0.0234375 0  0.8359375 0.0234375 0  0.84375 0.0234375 0  0.8515625 0.0234375 0  0.859375 0.0234375 0  0.8671
[...]
<PointData  Scalars="u_sol"> 
<DataArray  type="Float64"  Name="u_sol"  format="ascii">1.2958109996253161e-06  -9.1463405355717652e-06  -2.0342299892659330e-05  -2.2147288523859291e-05  -1.7154982613945775e-05  -6.7555898554018802e-06  7.3810140265037296e-06  2.3696797263863430e-05  4.0608812507202288e-05  5.6682544959447181e-05  7.0769597337881835e-05  8.2125301165274418e-05  9.0454562621574504e-05  9.5889200523533829e-05  9.8911644046318476e-05  1.0025107271601371e-04  1.0077627255249542e-04  1.0140178442690504e-04  1.0301377639434436e-04  1.0641394349652762e-04  1.1227621779824170e-04  1.2111282863449495e-04  1.3325170817718625e-04  1.4883294116806051e-04  1.6783380743305644e-04  1.9012718609157049e-04  2.1556722165044830e-04  2.4408360544860100e-04  2.7575821075574898e-04  3.1086024966779695e-04  3.4982900794876276e-04  3.9321129765737236e-04  4.4157552528953256e-04  4.9542848575744947e-04  5.5515280650511307e-04  6.2096743715982737e-04  6.9289980012620278e-04  7.7075368576975055e-04  8.5406269341598332e-04  9.4202954402746310e-04  1.0334599650949144e-03  1.1267027099522312e-03  1.2196061672135508e-03  1.3094999579552566e-03  1.3932084544603937e-03  1.4671018090673023e-03  1.5271877358194214e-03  1.5692436378270101e-03  1.5889839822441686e-03  1.5822534044863737e-03  1.5452328578930382e-03  1.4746447673314263e-03  1.3679435280271170e-03  1.2234796235478971e-03  1.0406287213417422e-03  8.1988127305408331e-04  5.6289238908856785e-04  2.7249547297190859e-04  -4.7314495507478623e-05  -3.9142129856659542e-04  -7.5364535337044743e-04  -1.1268150523842523e-03  -1.5028502145137111e-03  -1.8728595667375793e-03  -2.2272575483624521e-03  -2.5559087833490839e-03  -2.8483108837707074e-03  -3.0938273511441966e-03  -3.2819818667180565e-03  -3.4028223214581719e-03  -3.4473575473641708e-03  -3.4080611891611629e-03  -3.2794255176564566e-03  -3.0585345964468445e-03  -2.7456115128608139e-03  -2.3444812777008535e-03  -1.8628822642675924e-03  -1.3125576371239816e-03  -7.0906735560504256e-04  -7.1282465552532803e-05  5.7944392304030545e-04  1.2203932114629875e-03  1.8288058812785414e-03  2.3832959693421019e-03  2.8652126233258582e-03  3.2598019458486890e-03  3.5570421558112678e-03  3.7520668696965714e-03  3.8451477852608964e-03  3.8412682684180956e-03  3.7493712601745308e-03  3.5813985165899869e-03  3.3512483431425641e-03  3.0737662471400128e-03  2.7638531518222463e-03  2.4357383441438295e-03  2.1024286162355933e-03  1.7753188677565159e-03  1.4639367453484760e-03  1.1757943582550840e-03  9.1632961976469715e-04  6.8893188238935098e-04  4.9505473255181520e-04  3.3441862880222286e-04  2.0529719639259485e-04  1.0486698593949664e-04  2.9587511245550400e-05  -2.4428016064710808e-05  -6.1088042195999606e-05  -8.4070075951272926e-05  -9.6651287712255259e-05  -1.0161926204868176e-04  -1.0124972675803581e-04  -9.7333197162803023e-05  -9.1232013182615925e-05  -8.3951577392873608e-05  -7.6212964993550462e-05  -6.8517453886168567e-05  -6.1196489800144320e-05  -5.4443392728739822e-05  -4.8325301790512742e-05  -4.2777823472241534e-05  -3.7583784854131755e-05  -3.2356994928528934e-05  -2.6515858787415607e-05  -1.9415968132298914e-05  -1.0472674760185889e-05  -1.2590338192130768e-06  1.0961804336483538e-06  -8.9059404750376384e-07  -5.3830333273619662e-06  5.6509772986286366e-05  2.3887591128954241e-04  5.4537268522850851e-04  9.6068596528307956e-04  1.4585496516929810e-03  2.0073821311028979e-03  2.5739168792566608e-03  3.1266418031007520e-03  3.6387258279252368e-03  4.0901974305851841e-03  4.4691474202637419e-03  4.7719137611163601e-03  5.0023636927912134e-03  5.1704971495319585e-03  5.2906339332485204e-03  5.3794268984748055e-03  5.4538900588681632e-03  5.5295746152786871e-03  5.6189912468280765e-03  5.7303714089257272e-03  5.8668713744177842e-03  6.0263219181285379e-03  6.2015831972806745e-03  6.3814646536789572e-03  6.5520317412523371e-03  6.6979952297980469e-03  6.8038276183501074e-03  6.8543174896067280e-03  6.8344498301850356e-03  6.7287259687119731e-03  6.5202172343726402e-03  6.1897040524761249e-03  5.7151695516290991e-03  5.0717490849359380e-03  4.2320797153819114e-03  3.1669220031961616e-03  1.8459505449652054e-03  2.3867910530252662e-04  -1.6844631643772425e-03  -3.9508862410600216e-03  -6.5844412648897984e-03  -9.6039294238885620e-03  -1.3021608109107446e-02  -1.6841800324429890e-02  -2.1059715214514781e-02  -2.5660577244058309e-02  -3.0619140163273436e-02  -3.5899631166206494e-02  -4.1456132659106686e-02  -4.7233368996596602e-02  -5.3167830482470535e-02  -5.9189142681185941e-02  -6.5221578477357794e-02  -7.1185613170527087e-02  -7.6999435969680952e-02  -8.2580351962777729e-02  -8.7846033604563875e-02  -9.2715606482460508e-02  -9.7110578400982694e-02  -1.0095564086658038e-01  -1.0417938704594580e-01  -1.0671499913411507e-01  -1.0850096088033996e-01  -1.0948184842941025e-01  -1.0960924454939705e-01  -1.0884280844706103e-01  -1.0715151618565771e-01  -1.0451506574697997e-01  -1.0092541563857425e-01  -9.6388398952627241e-02  -9.0925325975509813e-02  -8.4574460425361056e-02  -7.7392230096701736e-02  -6.9454015061633900e-02  -6.0854350331697483e-02  -5.1706388328174493e-02  -4.2140493429774870e-02  -3.2301887473212297e-02  -2.2347331626224019e-02  -1.2440911617977540e-02  -2.7490836676771387e-03  6.5647734517089839e-03  1.5345980975644711e-02  2.3453991078629177e-02  3.0767250624163193e-02  3.7187155971413470e-02  4.2640834039443853e-02  4.7082596800611734e-02  5.0494048867278964e-02  5.2882961173272666e-02  5.4281136392409439e-02  5.4741564269808016e-02  5.4335184557828042e-02  5.3147538106714062e-02  5.1275501758140246e-02  4.8824190313553978e-02  4.5903998479535621e-02  4.2627679650243749e-02  3.9107342572844900e-02  3.5451301448424802e-02  3.1760826940179322e-02  2.8126979637382823e-02  2.4627815096669264e-02  2.1326287144171879e-02  1.8269122312609590e-02  1.5486804403623253e-02  1.2994634235848554e-02  1.0794667105454583e-02  8.8782221326643047e-03  7.2286230768390152e-03  5.8238639052905286e-03  4.6389721680011224e-03  3.6479418419900836e-03  2.8252016637292702e-03  2.1466596306043092e-03  1.5904112828426672e-03  1.1372158200936957e-03  7.7083131454200391e-04  4.7826091725827600e-04  2.4990188438057004e-04  7.9502529380814737e-05  -3.6260524208528136e-05  -9.8975289487552656e-05  -1.1091112932854348e-04  -8.0061624290764108e-05  -2.7376093357569810e-05  4.5122724203833683e-06  -8.6415018915781131e-06  3.9638115973405035e-05  2.3154729648206765e-04  6.1016231859334195e-04  1.1795262650365036e-03  1.9170800242681949e-03  2.7826352553760518e-03  3.7266238719483894e-03  4.6964531781648680e-03  5.6420840663881054e-03  6.5205932295558768e-03  7.2994968776218085e-03  7.9586182904895983e-03  8.4904722810655187e-03  8.8993134904220197e-03  9.1991263154073844e-03  9.4108940243965034e-03  9.5594818980472996e-03  9.6704271094043438e-03  9.7668774611521739e-03  9.8668870473322384e-03  9.9812668793490527e-03  1.0112185961660245e-02  1.0252687701355533e-02  1.0387191851931042e-02  1.0492882730407896e-02  1.0541674219783392e-02  1.0502267712660864e-02  1.0341769959327606e-02  1.0026467855869907e-02  9.5216451863517227e-03  8.7906693551943298e-03  7.7938313940402754e-03  6.4874809686548953e-03  4.8238493792364485e-03  2.7516958616156930e-03  2.1769013256245996e-04  -2.8316480614452334e-03  -6.4476036408918158e-03  -1.0676604256443329e-02  -1.5557314711273414e-02  -2.1117607886128383e-02  -2.7371606036271881e-02  -3.4317041956623336e-02  -4.1933204720204641e-02  -5.0179707901035847e-02  -5.8996253330504997e-02  -6.8303467616393665e-02  -7.8004775795042364e-02  -8.7989166346270825e-02  -9.8134613868421205e-02  -1.0831187180526311e-01  -1.1838833303584344e-01  -1.2823167975280955e-01  -1.3771309889269442e-01  -1.4670991400320677e-01  -1.5510756601902961e-01  -1.6280094999001479e-01  -1.6969517359725467e-01  -1.7570584245943507e-01  -1.8075899611215815e-01  -1.8479082146458597e-01  -1.8774726104115397e-01  -1.8958361736047796e-01  -1.9026423505581819e-01  -1.8976232208823882e-01  -1.8805995209020726e-01  -1.8514827130888709e-01  -1.8102791731462745e-01  -1.7570964003691153e-01  -1.6921509964562353e-01  -1.6157779906877975e-01  -1.5284409127299844e-01  -1.4307418307693873e-01  -1.3234303917014906e-01  -1.2074107400304346e-01  -1.0837450740329242e-01  -9.5365256304776089e-02  -8.1850242821922506e-02  -6.7980021341627728e-02  -5.3916665783679839e-02  -3.9830912708138731e-02  -2.5898621351592585e-02  -1.2296681856659195e-02  8.0143199822509624e-04  1.3230220326273670e-02  2.4836555351536158e-02  3.5483657520001911e-02  4.5054425137038903e-02  5.3453959491877909e-02  6.0611212931514447e-02  6.6479780616910678e-02  7.1037944185570065e-02  7.4288143665646178e-02  7.6256088804485825e-02  7.6989710657662747e-02  7.6558091882460613e-02  7.5050401375530651e-02  7.2574712315200962e-02  6.9256436211425895e-02  6.5236008639371859e-02  6.0665468186024120e-02  5.5703714575178191e-02  5.0510509478720864e-02  4.5239633417839736e-02  4.0031927560282878e-02  3.5009114780545428e-02  3.0269237254788358e-02  2.5884273806150302e-02  2.1900094527722371e-02  1.8338499418871376e-02  1.5200785382736857e-02  1.2472152422186506e-02  1.0126291786286542e-02  8.1296473317067301e-03  6.4450413097088361e-03  5.0345494872937541e-03  3.8616594000575534e-03  2.8928312882943140e-03  2.0986016801887307e-03  1.4543315464481813e-03  9.4061867162450183e-04  5.4327041239157260e-04  2.5261180280252565e-04  6.1663564949178255e-05  -3.7087454793271374e-05  -5.7766346988152501e-05  -2.6010397458458439e-05  3.9624185322601622e-06  -1.7728180167786737e-05  8.8559655876571306e-05  4.2051036316902179e-04  9.9167376812985832e-04  1.7943282914508506e-03  2.7963621890338534e-03  3.9470462404488631e-03  5.1848060997170924e-03  6.4448668454064042e-03  7.6659868617963024e-03  8.7958758893390034e-03  9.7949827833914548e-03  1.0638512604806125e-02  1.1316718800045526e-02  1.1833678648490678e-02  1.2204862896823682e-02  1.2453852095204840e-02  1.2608546960089053e-02  1.2697192256600341e-02  1.2744507609320423e-02  1.2768210165872844e-02  1.2776220442771498e-02  1.2764837606502507e-02  1.2718110602266052e-02  1.2608479473491745e-02  1.2398517228029621e-02  1.2043327090926424e-02  1.1492954266474901e-02  1.0694169991268246e-02  9.5912283010329037e-03  8.1256180879728385e-03  6.2352661408508559e-03  3.8538963288006949e-03  9.1120660579613007e-04  -2.6657620079335795e-03  -6.9500445401284722e-03  -1.2011179798007364e-02  -1.7910937227137026e-02  -2.4698615594134551e-02  -3.2406198463619709e-02  -4.1043732419087368e-02  -5.0595391051380015e-02  -6.1016726467616432e-02  -7.2233552526723824e-02  -8.4142752601012186e-02  -9.6615084835960000e-02  -1.0949980922778042e-01  -1.2263072752406881e-01  -1.3583305070169030e-01  -1.4893042279628202e-01  -1.6175145149978545e-01  -1.7413521805258084e-01  -1.8593542786187386e-01  -1.9702307300412009e-01  -2.0728766557110426e-01  -2.1663723826271974e-01  -2.2499738627116952e-01  -2.3230964764647988e-01  -2.3852950177840992e-01  -2.4362422347228840e-01  -2.4757077812329395e-01  -2.5035389099183852e-01  -2.5196437939368010e-01  -2.5239780085327357e-01  -2.5165344528101347e-01  -2.4973368258386308e-01  -2.4664366709579014e-01  -2.4239139488736378e-01  -2.3698810487863495e-01  -2.3044901014317665e-01  -2.2279433758559358e-01  -2.1405064180180583e-01  -2.0425234079419297e-01  -1.9344339796380278e-01  -1.8167904669494075e-01  -1.6902742405951926e-01  -1.5557095296532297e-01  -1.4140729334175417e-01  -1.2664967942922933e-01  -1.1142647882284469e-01  -9.5879855136659031e-02  -8.0163489549111094e-02  -6.4439413726428321e-02  -4.8874115276485545e-02  -3.3634179697318335e-02  -1.8881809420282225e-02  -4.7705918545365988e-03  8.5581363950095971e-03  2.0978063911917033e-02  3.2379678350291673e-02  4.2671049434506683e-02  5.1777775957967877e-02  5.9642370289409184e-02  6.6223429952953883e-02  7.1494971001070648e-02  7.5446269044618611e-02  7.8082467607940020e-02  7.9426066280659111e-02  7.9519191297193717e-02  7.8426290277756952e-02  7.6236617906539905e-02  7.3065660305894578e-02  6.9054577966798272e-02  6.4366919588078456e-02  5.9182306709517893e-02  5.3687445067356225e-02  4.8065507661934223e-02  4.2485423857688921e-02  3.7092710606611755e-02  3.2003148359276701e-02  2.7299955496984805e-02  2.3034379607547568e-02  1.9229028961134920e-02  1.5882949373510400e-02  1.2977425341052846e-02  1.0481673363890956e-02  8.3578863470342140e-03  6.5653782808924796e-03  5.0638006261831551e-03  3.8155267421788232e-03  2.7873284790649851e-03  1.9514192946320699e-03  1.2858321477538278e-03  7.7398751387602991e-04  4.0315879678238771e-04  1.6166804574936874e-04  3.4190012055825728e-05  -3.6579724902460028e-06  -1.4460268105772354e-07  -2.5859841497809505e-05  1.3051757272807094e-04  5.9050055522572758e-04  1.3402387958156917e-03  2.3532763870621875e-03  3.5832262168838157e-03  4.9669898785202286e-03  6.4316700156847326e-03  7.9026068403962382e-03  9.3107188684003819e-03  1.0598268328838067e-02  1.1722605634912130e-02  1.2657814215289531e-02  1.3394439012387439e-02  1.3937637784734506e-02  1.4304147228211491e-02  1.4518438433708036e-02  1.4608390816912302e-02  1.4600778275366388e-02  1.4516859395325028e-02  1.4368397611457204e-02  1.4154483724433767e-02  1.3859541899427475e-02  1.3452808775181053e-02  1.2889343540050766e-02  1.2112280628867655e-02  1.1055690130923019e-02  9.6472355836937432e-03  7.8099549577663940e-03  5.4629450068846720e-03  2.5213298991735530e-03  -1.1036428955093136e-03  -5.5034511636159406e-03  -1.0769486585110241e-02  -1.6988508173330738e-02  -2.4236727772417307e-02  -3.2573095133806976e-02  -4.2032380345289874e-02  -5.2618683395076062e-02  -6.4300103442343354e-02  -7.7005382787150078e-02  -9.0623267381210210e-02  -1.0500504743889592e-01  -1.1997031145972513e-01  -1.3531546188277782e-01  -1.5082410063191595e-01  -1.6627809598410667e-01  -1.8146806595751083e-01  -1.9620218055649280e-01  -2.1031254247719910e-01  -2.2365884768911007e-01  -2.3612944061246494e-01  -2.4764018315386324e-01  -2.5813172101361392e-01  -2.6756576342141708e-01  -2.7592093103782867e-01  -2.8318861097506159e-01  -2.8936912606961707e-01  -2.9446840284392017e-01  -2.9849522285420738e-01  -3.0145907072263828e-01  -3.0336854791216955e-01  -3.0423029786165773e-01  -3.0404838241591137e-01  -3.0282405367185328e-01  -3.0055587587848642e-01  -2.9724016507681428e-01  -2.9287172640991999e-01  -2.8744487985439804e-01  -2.8095477041088329e-01  -2.7339896015002846e-01  -2.6477929251063886e-01  -2.5510400510612197e-01  -2.4439004402837991e-01  -2.3266549901866571e-01  -2.1997203898811746e-01  -2.0636718137231888e-01  -1.9192618392522787e-01  -1.7674331424278039e-01  -1.6093223889968791e-01  -1.4462529580589314e-01  -1.2797147917444424e-01  -1.1113308058698670e-01  -9.4281087382114964e-02  -7.7589621145178186e-02  -6.1229874850690730e-02  -4.5364138487048997e-02  -3.0140553000464629e-02  -1.5689177174382059e-02  -2.1197888649980242e-03  1.0478404699460707e-02  2.2035259942467092e-02  3.2496779458410598e-02  4.1821383546741558e-02  4.9976095177009155e-02  5.6933389818178040e-02  6.2669396300890370e-02  6.7163984855595812e-02  7.0403043961213801e-02  7.2382922614739484e-02  7.3116601186963795e-02  7.2640685629770912e-02  7.1021883752320228e-02  6.8361361261890546e-02  6.4795451545112959e-02  6.0491713954045678e-02  5.5640264603670601e-02  5.0441418034708425e-02  4.5091618700009835e-02  3.9770064695806941e-02  3.4628177466355874e-02  2.9783266124493068e-02  2.5316693982242729e-02  2.1275936170905823e-02  1.7679359605977923e-02  1.4522415100994874e-02  1.1784113689776408e-02  9.4330072076743449e-03  7.4322594900851132e-03  5.7436820860984348e-03  4.3307761041110953e-03  3.1608740897634971e-03  2.2064383075238721e-03  1.4455031276170522e-03  8.6113680242675642e-04  4.3988660258136459e-04  1.6857092549516352e-04  2.9952914538750567e-05  -6.4913511006473164e-06  -3.2878012551200936e-05  1.6583791930547940e-04  7.3996472921435141e-04  1.6541106493465005e-03  2.8608628338892333e-03  4.2953053339688475e-03  5.8782949395146389e-03  7.5234940614328271e-03  9.1459414606672573e-03  1.0669846542589453e-02  1.2034382468416517e-02  1.3196920277725843e-02  1.4133741762405368e-02  1.4838632189151834e-02  1.5319906888653608e-02  1.5596404088797543e-02  1.5692864201430456e-02  1.5634997858674098e-02  1.5444484484157871e-02  1.5134166610637368e-02  1.4703797253192411e-02  1.4136800037185943e-02  1.3398522555612772e-02  1.2436310049343369e-02  1.1181365673532291e-02  9.5518820650575230e-03  7.4565411505567109e-03  4.7974381415782936e-03  1.4719188147232431e-03  -2.6264083703262833e-03  -7.6064942163313852e-03  -1.3577250212135355e-02  -2.0642654819471248e-02  -2.8894497443328959e-02  -3.8403470365417511e-02  -4.9209728757602614e-02  -6.1314100385372980e-02  -7.4671087563467575e-02  -8.9184800997720332e-02  -1.0470887862043866e-01  -1.2105107698157661e-01  -1.3798254298267998e-01  -1.5525093607186452e-01  -1.7259581371302352e-01  -1.8976424212744292e-01  -2.0652459433232132e-01  -2.2267694561964130e-01  -2.3805921899611165e-01  -2.5254903641633047e-01  -2.6606188724046548e-01  -2.7854661684955412e-01  -2.8997935357902760e-01  -3.0035689018603789e-01  -3.0969030656627738e-01  -3.1799934938492819e-01  -3.2530783091992266e-01  -3.3164011015267031e-01  -3.3701858377756844e-01  -3.4146203873775866e-01  -3.4498468934403936e-01  -3.4759572565148772e-01  -3.4929922262077506e-01  -3.5009429205769982e-01  -3.4997539292574248e-01  -3.4893274840977212e-01  -3.4695284611479715e-01  -3.4401902222631420e-01  -3.4011215033103065e-01  -3.3521147124875733e-01  -3.2929561265676810e-01  -3.2234385367073642e-01  -3.1433769086361690e-01  -3.0526275428731525e-01  -2.9511110261591716e-01  -2.8388389344411619e-01  -2.7159437390333996e-01  -2.5827106991480231e-01  -2.4396097165306690e-01  -2.2873242551947184e-01  -2.1267736564714557e-01  -1.9591246710341093e-01  -1.7857880397015433e-01  -1.6083966922407869e-01  -1.4287637129497124e-01  -1.2488206350922014e-01  -1.0705396090548101e-01  -8.9584605342826237e-02  -7.2653090816958227e-02  -5.6417288723630631e-02  -4.1008069204315052e-02  -2.6526284986152480e-02  -1.3042900724662503e-02  -6.0218465361814503e-04  1.0772580548774746e-02  2.1071779951778034e-02  3.0291680206191759e-02  3.8427382888322786e-02  4.5467651930073322e-02  5.1392556084471255e-02  5.6174563185512554e-02  5.9783299267675505e-02  6.2193631476018613e-02  6.3396071197851386e-02  6.3407816910119846e-02  6.2282246527161675e-02  6.0114560862851447e-02  5.7041764206165330e-02  5.3236263531519085e-02  4.8893834337363828e-02  4.4218079401563255e-02  3.9404305877777060e-02  3.4625687398001787e-02  3.0023738314150068e-02  2.5703883494996933e-02  2.1735725021226431e-02  1.8156823772060925e-02  1.4978535597708363e-02  1.2192577448087360e-02  9.7773627771112412e-03  7.7035568299340280e-03  5.9386389697612951e-03  4.4504683206902929e-03  3.2099327542683079e-03  2.1927549479555312e-03  1.3804700810950967e-03  7.6051582962788919e-04  3.2514563960304874e-04  6.9202837089003751e-05  -1.3962153391873391e-05  -3.9266185453645828e-05  1.9767993760147861e-04  8.7802433025851100e-04  1.9482646695056847e-03  3.3388828299845490e-03  4.9628075923382094e-03  6.7207894949253269e-03  8.5100069401948704e-03  1.0233820834024363e-02  1.1810140297452254e-02  1.3176964152675281e-02  1.4294578757575132e-02  1.5144698560736818e-02  1.5727288447546433e-02  1.6055919064097326e-02  1.6152368444445876e-02  1.6040943391905760e-02  1.5742788768671582e-02  1.5270371554503380e-02  1.4622393143831730e-02  1.3779550674126945e-02  1.2701722806292460e-02  1.1327146151982388e-02  9.5738564376712642e-03  7.3431077118229337e-03  4.5238704898433882e-03  9.9721182217292958e-04  -3.3603192896784167e-03  -8.6742623207946411e-03  -1.5069675322977346e-02  -2.2666794438913153e-02  -3.1573704665635104e-02  -4.1875989177876612e-02  -5.3624610516123571e-02  -6.6824021676513884e-02  -8.1422579390007063e-02  -9.7307050988701585e-02  -1.1430263457488843e-01  -1.3217937575087388e-01  -1.5066496656744174e-01  -1.6946269891317936e-01  -1.882