<?xml version="1.0"?>
<VTKFile type="UnstructuredGrid"  version="0.1"  >
<UnstructuredGrid>
<Piece  NumberOfPoints="16641" NumberOfCells="16384">
<Points>
<DataArray  type="Float64"  NumberOfComponents="3"  format="ascii">0 0 0  0.0078125 0 0  0.015625 0 0  0.0234375 0 0  0.03125 0 0  0.0390625 0 0  0.046875 0 0  0.0546875 0 0  0.0625 0 0  0.0703125 0 0  0.078125 0 0  0.0859375 0 0  0.09375 0 0  0.1015625 0 0  0.109375 0 0  0.1171875 0 0  0.125 0 0  0.1328125 0 0  0.140625 0 0  0.1484375 0 0  0.15625 0 0  0.1640625 0 0  0.171875 0 0  0.1796875 0 0  0.1875 0 0  0.1953125 0 0  0.203125 0 0  0.2109375 0 0  0.21875 0 0  0.2265625 0 0  0.234375 0 0  0.2421875 0 0  0.25 0 0  0.2578125 0 0  0.265625 0 0  0.2734375 0 0  0.28125 0 0  0.2890625 0 0  0.296875 0 0  0.3046875 0 0  0.3125 0 0  0.3203125 0 0  0.328125 0 0  0.3359375 0 0  0.34375 0 0  0.3515625 0 0  0.359375 0 0  0.3671875 0 0  0.375 0 0  0.3828125 0 0  0.390625 0 0  0.3984375 0 0  0.40625 0 0  0.4140625 0 0  0.421875 0 0  0.4296875 0 0  0.4375 0 0  0.4453125 0 0  0.453125 0 0  0.4609375 0 0  0.46875 0 0  0.4765625 0 0  0.484375 0 0  0.4921875 0 0  0.5 0 0  0.5078125 0 0  0.515625 0 0  0.5234375 0 0  0.53125 0 0  0.5390625 0 0  0.546875 0 0  0.5546875 0 0  0.5625 0 0  0.5703125 0 0  0.578125 0 0  0.5859375 0 0  0.59375 0 0  0.6015625 0 0  0.609375 0 0  0.6171875 0 0  0.625 0 0  0.6328125 0 0  0.640625 0 0  0.6484375 0 0  0.65625 0 0  0.6640625 0 0  0.671875 0 0  0.6796875 0 0  0.6875 0 0  0.6953125 0 0  0.703125 0 0  0.7109375 0 0  0.71875 0 0  0.7265625 0 0  0.734375 0 0  0.7421875 0 0  0.75 0 0  0.7578125 0 0  0.765625 0 0  0.7734375 0 0  0.78125 0 0  0.7890625 0 0  0.796875 0 0  0.8046875 0 0  0.8125 0 0  0.8203125 0 0  0.828125 0 0  0.8359375 0 0  0.84375 0 0  0.8515625 0 0  0.859375 0 0  0.8671875 0 0  0.875 0 0  0.8828125 0 0  0.890625 0 0  0.8984375 0 0  0.90625 0 0  0.9140625 0 0  0.921875 0 0  0.9296875 0 0  0.9375 0 0  0.9453125 0 0  0.953125 0 0  0.9609375 0 0  0.96875 0 0  0.9765625 0 0  0.984375 0 0  0.9921875 0 0  1 0 0  0 0.0078125 0  0.0078125 0.0078125 0  0.015625 0.0078125 0  0.0234375 0.0078125 0  0.03125 0.0078125 0  0.0390625 0.0078125 0  0.046875 0.0078125 0  0.0546875 0.0078125 0  0.0625 0.0078125 0  0.0703125 0.0078125 0  0.078125 0.0078125 0  0.0859375 0.0078125 0  0.09375 0.0078125 0  0.1015625 0.0078125 0  0.109375 0.0078125 0  0.1171875 0.0078125 0  0.125 0.0078125 0  0.1328125 0.0078125 0  0.140625 0.0078125 0  0.1484375 0.0078125 0  0.15625 0.0078125 0  0.1640625 0.0078125 0  0.171875 0.0078125 0  0.1796875 0.0078125 0  0.1875 0.0078125 0  0.1953125 0.0078125 0  0.203125 0.0078125 0  0.2109375 0.0078125 0  0.21875 0.0078125 0  0.2265625 0.0078125 0  0.234375 0.0078125 0  0.2421875 0.0078125 0  0.25 0.0078125 0  0.2578125 0.0078125 0  0.265625 0.0078125 0  0.2734375 0.0078125 0  0.28125 0.0078125 0  0.2890625 0.0078125 0  0.296875 0.0078125 0  0.3046875 0.0078125 0  0.3125 0.0078125 0  0.3203125 0.0078125 0  0.328125 0.0078125 0  0.3359375 0.0078125 0  0.34375 0.0078125 0  0.3515625 0.0078125 0  0.359375 0.0078125 0  0.3671875 0.0078125 0  0.375 0.0078125 0  0.3828125 0.0078125 0  0.390625 0.0078125 0  0.3984375 0.0078125 0  0.40625 0.0078125 0  0.4140625 0.0078125 0  0.421875 0.0078125 0  0.4296875 0.0078125 0  0.4375 0.0078125 0  0.4453125 0.0078125 0  0.453125 0.0078125 0  0.4609375 0.0078125 0  0.46875 0.0078125 0  0.4765625 0.0078125 0  0.484375 0.0078125 0  0.4921875 0.0078125 0  0.5 0.0078125 0  0.5078125 0.0078125 0  0.515625 0.0078125 0  0.5234375 0.0078125 0  0.53125 0.0078125 0  0.5390625 0.0078125 0  0.546875 0.0078125 0  0.5546875 0.0078125 0  0.5625 0.0078125 0  0.5703125 0.0078125 0  0.578125 0.0078125 0  0.5859375 0.0078125 0  0.59375 0.0078125 0  0.6015625 0.0078125 0  0.609375 0.0078125 0  0.6171875 0.0078125 0  0.625 0.0078125 0  0.6328125 0.0078125 0  0.640625 0.0078125 0  0.6484375 0.0078125 0  0.65625 0.0078125 0  0.6640625 0.0078125 0  0.671875 0.0078125 0  0.6796875 0.0078125 0  0.6875 0.0078125 0  0.6953125 0.0078125 0  0.703125 0.0078125 0  0.7109375 0.0078125 0  0.71875 0.0078125 0  0.7265625 0.0078125 0  0.734375 0.0078125 0  0.7421875 0.0078125 0  0.75 0.0078125 0  0.7578125 0.0078125 0  0.765625 0.0078125 0  0.7734375 0.0078125 0  0.78125 0.0078125 0  0.7890625 0.0078125 0  0.796875 0.0078125 0  0.8046875 0.0078125 0  0.8125 0.0078125 0  0.8203125 0.0078125 0  0.828125 0.0078125 0  0.8359375 0.0078125 0  0.84375 0.0078125 0  0.8515625 0.0078125 0  0.859375 0.0078125 0  0.8671875 0.0078125 0  0.875 0.0078125 0  0.8828125 0.0078125 0  0.890625 0.0078125 0  0.8984375 0.0078125 0  0.90625 0.0078125 0  0.9140625 0.0078125 0  0.921875 0.0078125 0  0.9296875 0.0078125 0  0.9375 0.0078125 0  0.9453125 0.0078125 0  0.953125 0.0078125 0  0.9609375 0.0078125 0  0.96875 0.0078125 0  0.9765625 0.0078125 0  0.984375 0.0078125 0  0.9921875 0.0078125 0  1 0.0078125 0  0 0.015625 0  0.0078125 0.015625 0  0.015625 0.015625 0  0.0234375 0.015625 0  0.03125 0.015625 0  0.0390625 0.015625 0  0.046875 0.015625 0  0.0546875 0.015625 0  0.0625 0.015625 0  0.0703125 0.015625 0  0.078125 0.015625 0  0.0859375 0.015625 0  0.09375 0.015625 0  0.1015625 0.015625 0  0.109375 0.015625 0  0.1171875 0.015625 0  0.125 0.015625 0  0.1328125 0.015625 0  0.140625 0.015625 0  0.1484375 0.015625 0  0.15625 0.015625 0  0.1640625 0.015625 0  0.171875 0.015625 0  0.1796875 0.015625 0  0.1875 0.015625 0  0.1953125 0.015625 0  0.203125 0.015625 0  0.2109375 0.015625 0  0.21875 0.015625 0  0.2265625 0.015625 0  0.234375 0.015625 0  0.2421875 0.015625 0  0.25 0.015625 0  0.2578125 0.015625 0  0.265625 0.015625 0  0.2734375 0.015625 0  0.28125 0.015625 0  0.2890625 0.015625 0  0.296875 0.015625 0  0.3046875 0.015625 0  0.3125 0.015625 0  0.3203125 0.015625 0  0.328125 0.015625 0  0.3359375 0.015625 0  0.34375 0.015625 0  0.3515625 0.015625 0  0.359375 0.015625 0  0.3671875 0.015625 0  0.375 0.015625 0  0.3828125 0.015625 0  0.390625 0.015625 0  0.3984375 0.015625 0  0.40625 0.015625 0  0.4140625 0.015625 0  0.421875 0.015625 0  0.4296875 0.015625 0  0.4375 0.015625 0  0.4453125 0.015625 0  0.453125 0.015625 0  0.4609375 0.015625 0  0.46875 0.015625 0  0.4765625 0.015625 0  0.484375 0.015625 0  0.4921875 0.015625 0  0.5 0.015625 0  0.5078125 0.015625 0  0.515625 0.015625 0  0.5234375 0.015625 0  0.53125 0.015625 0  0.5390625 0.015625 0  0.546875 0.015625 0  0.5546875 0.015625 0  0.5625 0.015625 0  0.5703125 0.015625 0  0.578125 0.015625 0  0.5859375 0.015625 0  0.59375 0.015625 0  0.6015625 0.015625 0  0.609375 0.015625 0  0.6171875 0.015625 0  0.625 0.015625 0  0.6328125 0.015625 0  0.640625 0.015625 0  0.6484375 0.015625 0  0.65625 0.015625 0  0.6640625 0.015625 0  0.671875 0.015625 0  0.6796875 0.015625 0  0.6875 0.015625 0  0.6953125 0.015625 0  0.703125 0.015625 0  0.7109375 0.015625 0  0.71875 0.015625 0  0.7265625 0.015625 0  0.734375 0.015625 0  0.7421875 0.015625 0  0.75 0.015625 0  0.7578125 0.015625 0  0.765625 0.015625 0  0.7734375 0.015625 0  0.78125 0.015625 0  0.7890625 0.015625 0  0.796875 0.015625 0  0.8046875 0.015625 0  0.8125 0.015625 0  0.8203125 0.015625 0  0.828125 0.015625 0  0.8359375 0.015625 0  0.84375 0.015625 0  0.8515625 0.015625 0  0.859375 0.015625 0  0.8671875 0.015625 0  0.875 0.015625 0  0.8828125 0.015625 0  0.890625 0.015625 0  0.8984375 0.015625 0  0.90625 0.015625 0  0.9140625 0.015625 0  0.921875 0.015625 0  0.9296875 0.015625 0  0.9375 0.015625 0  0.9453125 0.015625 0  0.953125 0.015625 0  0.9609375 0.015625 0  0.96875 0.015625 0  0.9765625 0.015625 0  0.984375 0.015625 0  0.9921875 0.015625 0  1 0.015625 0  0 0.0234375 0  0.0078125 0.0234375 0  0.015625 0.0234375 0  0.0234375 0.0234375 0  0.03125 0.0234375 0  0.0390625 0.0234375 0  0.046875 0.0234375 0  0.0546875 0.0234375 0  0.0625 0.0234375 0  0.0703125 0.0234375 0  0.078125 0.0234375 0  0.0859375 0.0234375 0  0.09375 0.0234375 0  0.1015625 0.0234375 0  0.109375 0.0234375 0  0.1171875 0.0234375 0  0.125 0.0234375 0  0.1328125 0.0234375 0  0.140625 0.0234375 0  0.1484375 0.0234375 0  0.15625 0.0234375 0  0.1640625 0.0234375 0  0.171875 0.0234375 0  0.1796875 0.0234375 0  0.1875 0.0234375 0  0.1953125 0.0234375 0  0.203125 0.0234375 0  0.2109375 0.0234375 0  0.21875 0.0234375 0  0.2265625 0.0234375 0  0.234375 0.0234375 0  0.2421875 0.0234375 0  0.25 0.0234375 0  0.2578125 0.0234375 0  0.265625 0.0234375 0  0.2734375 0.0234375 0  0.28125 0.0234375 0  0.2890625 0.0234375 0  0.296875 0.0234375 0  0.3046875 0.0234375 0  0.3125 0.0234375 0  0.3203125 0.0234375 0  0.328125 0.0234375 0  0.3359375 0.0234375 0  0.34375 0.0234375 0  0.3515625 0.0234375 0  0.359375 0.0234375 0  0.3671875 0.0234375 0  0.375 0.0234375 0  0.3828125 0.0234375 0  0.390625 0.0234375 0  0.3984375 0.0234375 0  0.40625 0.0234375 0  0.4140625 0.0234375 0  0.421875 0.0234375 0  0.4296875 0.0234375 0  0.4375 0.0234375 0  0.4453125 0.0234375 0  0.453125 0.0234375 0  0.4609375 0.0234375 0  0.46875 0.0234375 0  0.4765625 0.0234375 0  0.484375 0.0234375 0  0.4921875 0.0234375 0  0.5 0.0234375 0  0.5078125 0.0234375 0  0.515625 0.0234375 0  0.5234375 0.0234375 0  0.53125 0.0234375 0  0.5390625 0.0234375 0  0.546875 0.0234375 0  0.5546875 0.0234375 0  0.5625 0.0234375 0  0.5703125 0.0234375 0  0.578125 0.0234375 0  0.5859375 0.0234375 0  0.59375 0.0234375 0  0.6015625 0.0234375 0  0.609375 0.0234375 0  0.6171875 0.0234375 0  0.625 0.0234375 0  0.6328125 0.0234375 0  0.640625 0.0234375 0  0.6484375 0.0234375 0  0.65625 0.0234375 0  0.6640625 0.0234375 0  0.671875 0.0234375 0  0.6796875 0.0234375 0  0.6875 0.0234375 0  0.6953125 0.0234375 0  0.703125 0.0234375 0  0.7109375 0.0234375 0  0.71875 0.0234375 0  0.7265625 0.0234375 0  0.734375 0.0234375 0  0.7421875 0.0234375 0  0.75 0.0234375 0  0.7578125 0.0234375 0  0.765625 0.0234375 0  0.7734375 0.0234375 0  0.78125 0.0234375 0  0.7890625 0.0234375 0  0.796875 0.0234375 0  0.8046875 0.0234375 0  0.8125 0.0234375 0  0.8203125 0.0234375 0  0.828125 0.0234375 0  0.8359375 0.0234375 0  0.84375 0.0234375 0  0.8515625 0.0234375 0  0.859375 0.0234375 0  0.8671
[...]
<PointData  Scalars="v_sol"> 
<DataArray  type="Float64"  Name="v_sol"  format="ascii">-1.2891383396010509e-06  1.0284631169048775e-06  9.6333899953962007e-06  2.0566070767647367e-05  3.0887016083132558e-05  3.9315432706109684e-05  4.5181530400063097e-05  4.8189969343902322e-05  4.8350459688311331e-05  4.5950697077748001e-05  4.1503767698060577e-05  3.5671823753043646e-05  2.9177049728740652e-05  2.2715918436472232e-05  1.6889142752978242e-05  1.2153999451466574e-05  8.7996103787166896e-06  6.9414567467623567e-06  6.5297725277723989e-06  7.3674390534921389e-06  9.1355298966830305e-06  1.1427002139995647e-05  1.3789467771932001e-05  1.5775591145428331e-05  1.6995056957438734e-05  1.7157474543300263e-05  1.6094052316735266e-05  1.3749558389144896e-05  1.0144752853102425e-05  5.3200277519958425e-06  -7.2146971207966019e-07  -8.0525098402479618e-06  -1.6831098952286610e-05  -2.7281441583888567e-05  -3.9658126845430642e-05  -5.4208731553628588e-05  -7.1145512189788626e-05  -9.0628154350429031e-05  -1.1275266645355290e-04  -1.3754016730975623e-04  -1.6492261828248065e-04  -1.9472676616082496e-04  -2.2665977881689459e-04  -2.6029994683640108e-04  -2.9509476453967070e-04  -3.3036762584241964e-04  -3.6533354293427975e-04  -3.9912338714374884e-04  -4.3081518258811252e-04  -4.5947001248137890e-04  -4.8416927801814258e-04  -5.0405003757117059e-04  -5.1833558275489943e-04  -5.2635934160476878e-04  -5.2758106679580527e-04  -5.2159525345268248e-04  -5.0813224314128738e-04  -4.8705344864590102e-04  -4.5834237356580983e-04  -4.2209363775330200e-04  -3.7850207895375523e-04  -3.2785382695115525e-04  -2.7052081116354861e-04  -2.0695945359199032e-04  -1.3771378803744430e-04  -6.3422529640745355e-05  1.5170899523243610e-05  9.7206892572956495e-05  1.8169863457945248e-04  2.6752357485569905e-04  3.5341986566472669e-04  4.3798974417301261e-04  5.1971212254572951e-04  5.9696577336155999e-04  6.6806423798549601e-04  7.3130249766963692e-04  7.8501470912959099e-04  8.2764108104950711e-04  8.5780109128613072e-04  8.7436905458818321e-04  8.7654720428536703e-04  8.6393081238224313e-04  8.3655928155144455e-04  7.9494745831307158e-04  7.4009184402011575e-04  6.7344807228619569e-04  5.9687824626054214e-04  5.1256993666652249e-04  4.2293220076373213e-04  3.3047739566243237e-04  2.3770006238032338e-04  1.4696494177329151e-04  6.0414782157440732e-05  -2.0095003488234488e-05  -9.3032891932309762e-05  -1.5720270355321447e-04  -2.1173799391862422e-04  -2.5608949862550670e-04  -2.9001437858985625e-04  -3.1357173734924092e-04  -3.2712273207739670e-04  -3.3132801998222051e-04  -3.2713228441366861e-04  -3.1572683026247385e-04  -2.9848646016475086e-04  -2.7688421424065395e-04  -2.5239444906592499e-04  -2.2639852617096021e-04  -2.0010690987105878e-04  -1.7450730230452380e-04  -1.5034229681691079e-04  -1.2811416618163334e-04  -1.0811026304567493e-04  -9.0440689259879052e-05  -7.5080038018487223e-05  -6.1906489021537403e-05  -5.0733725320400960e-05  -4.1333574555464402e-05  -3.3449728905545938e-05  -2.6805121184940841e-05  -2.1107543472319536e-05  -1.6059764448940696e-05  -1.1382866063177902e-05  -6.8630801864398467e-06  -2.4447218352614119e-06  1.6177725324634914e-06  4.4437509556296011e-06  4.5719038652011934e-06  1.1029224865575208e-06  9.1370777830339259e-06  5.0950474899881708e-06  -4.4428769318115616e-05  -1.0393276247026601e-04  -1.5892060253060804e-04  -2.0340716918309607e-04  -2.3420384739881328e-04  -2.4983065390891474e-04  -2.5038170399150332e-04  -2.3742323519525030e-04  -2.1372839859763387e-04  -1.8285867939653029e-04  -1.4867522495953027e-04  -1.1487330722241669e-04  -8.4610753751750920e-05  -6.0264595112745911e-05  -4.3314657843681275e-05  -3.4328855473484810e-05  -3.3017302016348175e-05  -3.8329856400950987e-05  -4.8587851608921485e-05  -6.1655646235780117e-05  -7.5161222745451120e-05  -8.6761823494984380e-05  -9.4423712278065875e-05  -9.6657373472008520e-05  -9.2638654869999580e-05  -8.2165806871800612e-05  -6.5451396159875270e-05  -4.2808565062425854e-05  -1.4334742203939482e-05  2.0301555864361441e-05  6.1908712766080957e-05  1.1166250191104712e-04  1.7090703987153902e-04  2.4095352371531034e-04  3.2293620912551791e-04  4.1773357621481506e-04  5.2592323438652297e-04  6.4773297517083854e-04  7.8297099976004723e-04  9.3094294543692952e-04  1.0903750045827441e-03  1.2593609067774213e-03  1.4353440501473846e-03  1.6151406498444345e-03  1.7950058727071903e-03  1.9707411324735588e-03  2.1378366615076982e-03  2.2916386418904045e-03  2.4275261153369671e-03  2.5410817162590522e-03  2.6282421170060414e-03  2.6854179414825307e-03  2.7095775400367561e-03  2.6982932046847479e-03  2.6497521873334456e-03  2.5627386872147289e-03  2.4365956125207843e-03  2.2711765832593464e-03  2.0667992416983690e-03  1.8242096628062728e-03  1.5445662940059648e-03  1.2294487073161260e-03  8.8089431331705330e-04  5.0146263961736270e-04  9.4324035812884952e-05  -3.3663385082043350e-04  -7.8669140490658152e-04  -1.2501874023923892e-03  -1.7204308361827550e-03  -2.1896529775037184e-03  -2.6490209228265558e-03  -3.0887326468745659e-03  -3.4982122561575892e-03  -3.8664170057882731e-03  -4.1822589328372036e-03  -4.4351303129081454e-03  -4.6155069056891514e-03  -4.7155864646997586e-03  -4.7299056550833369e-03  -4.6558698302920330e-03  -4.4941287014294692e-03  -4.2487409835040820e-03  -3.9270902049030193e-03  -3.5395429824730111e-03  -3.0988734664685754e-03  -2.6195096870000991e-03  -2.1166818453647448e-03  -1.6055649430159434e-03  -1.1005054592678773e-03  -6.1440454494517279e-04  -1.5830149916511925e-04  2.5883344057664031e-04  6.3012190073325988e-04  9.5066756341691521e-04  1.2173795762048948e-03  1.4287933823851468e-03  1.5849353860668816e-03  1.6872482177330774e-03  1.7385594443434160e-03  1.7430489542723737e-03  1.7061585831876303e-03  1.6343972466468899e-03  1.5350236526298366e-03  1.4156264611741359e-03  1.2836553261202832e-03  1.1459733499167850e-03  1.0084972713505596e-03  8.7596964287014849e-04  7.5187668838843898e-04  6.3849706038192095e-04  5.3704752642478476e-04  4.4788366194901453e-04  3.7071516040311541e-04  3.0480304765026750e-04  2.4911692708180170e-04  2.0244252726722966e-04  1.6344201182339011e-04  1.3068082282916685e-04  1.0264478192543366e-04  7.7780255196229007e-05  5.4600272917806998e-05  3.1916765736947690e-05  9.2914409284627035e-06  -1.2104435571597297e-05  -2.7885638319039710e-05  -2.7416335410083456e-05  -1.2988582031654893e-06  2.0603218568815312e-05  -5.3278378359437314e-05  -2.4252035881184336e-04  -4.6603762682323848e-04  -6.7580683754635772e-04  -8.4705413891234601e-04  -9.6598624532656164e-04  -1.0262496281581318e-03  -1.0279385948279802e-03  -9.7687499390525429e-04  -8.8347143713304736e-04  -7.6115544146106151e-04  -6.2458401243195170e-04  -4.8793262933351196e-04  -3.6348679086391607e-04  -2.6065931617098317e-04  -1.8544874087603584e-04  -1.4027667752335363e-04  -1.2411212464595627e-04  -1.3280716471807271e-04  -1.5961235169923227e-04  -1.9587977387113014e-04  -2.3196450219150057e-04  -2.5828366223188889e-04  -2.6639933690974414e-04  -2.4990208459267665e-04  -2.0484654736501519e-04  -1.2957262193946851e-04  -2.3928410861050360e-05  1.1187159009805535e-04  2.7836902035005345e-04  4.7758136377080101e-04  7.1310107792898971e-04  9.8961197254047897e-04  1.3120743475236285e-03  1.6848922093727330e-03  2.1112716211148328e-03  2.5928006332354412e-03  3.1291552930274905e-03  3.7178280038990381e-03  4.3538507124329540e-03  5.0295639583150895e-03  5.7345113568270248e-03  6.4555216101974252e-03  7.1770062862832745e-03  7.8814693816042971e-03  8.5501958058528255e-03  9.1640621837634582e-03  9.7043975080406859e-03  1.0153814755125183e-02  1.0496937027953825e-02  1.0720955186403505e-02  1.0815977401444422e-02  1.0775159864422020e-02  1.0594636076639635e-02  1.0273283984245920e-02  9.8123826755923040e-03  9.2152141265361923e-03  8.4866618319497517e-03  7.6328494782806084e-03  6.6608519441314134e-03  5.5784991759887321e-03  4.3942826112147657e-03  3.1173649817595492e-03  1.7576858325877621e-03  3.2615003611075662e-04  -1.1651205724503213e-03  -2.7024961519745917e-03  -4.2705373507767918e-03  -5.8517176995317574e-03  -7.4262089135597349e-03  -8.9717712197673709e-03  -1.0463794245067125e-02  -1.1875530909788410e-02  -1.3178562314587978e-02  -1.4343517769823734e-02  -1.5341055866804574e-02  -1.6143084940697199e-02  -1.6724170193385915e-02  -1.7063040338425393e-02  -1.7144075284011219e-02  -1.6958634577235805e-02  -1.6506079197682287e-02  -1.5794352691816942e-02  -1.4840022202653791e-02  -1.3667734966932122e-02  -1.2309112844115714e-02  -1.0801177662620473e-02  -9.1844608173154603e-03  -7.5009909769672232e-03  -5.7923657527022745e-03  -4.0980936516807898e-03  -2.4543429940195225e-03  -8.9316244235526459e-04  5.5784634392200738e-04  1.8755048794073367e-03  3.0408462415123646e-03  4.0389074936549923e-03  4.8586982395376673e-03  5.4934471354867219e-03  5.9411153058607554e-03  6.2050378432603748e-03  6.2944509883993000e-03  6.2246264053972969e-03  6.0163907754213104e-03  5.6949516680550594e-03  5.2881358119461945e-03  4.8243073332331068e-03  4.3303145765806184e-03  3.8297909622841322e-03  3.3420272362622615e-03  2.8814860885911413e-03  2.4578954372583071e-03  2.0767670715064863e-03  1.7401519282129684e-03  1.4474542352273289e-03  1.1961681284922972e-03  9.8245734211924998e-04  8.0155897154499220e-04  6.4804837058642800e-04  5.1604979045465418e-04  3.9951660249151191e-04  2.9274169181476884e-04  1.9130305295239023e-04  9.3725886884712495e-05  4.2410018845859378e-06  -6.2865072320126194e-05  -7.8617875138282381e-05  -1.0682900386203499e-05  2.4124120627474150e-05  -2.1693467873573060e-04  -6.0940660385891876e-04  -1.0505132600129240e-03  -1.4628713913738280e-03  -1.7990884129637343e-03  -2.0311232022422422e-03  -2.1459659139165285e-03  -2.1437589562717779e-03  -2.0360450768871579e-03  -1.8433210195123652e-03  -1.5919059482108807e-03  -1.3105110490835346e-03  -1.0269773772666310e-03  -7.6555900131219901e-04  -5.4496131229390466e-04  -3.7717361007406122e-04  -2.6701208472392542e-04  -2.1224064900641099e-04  -2.0416092374845994e-04  -2.2862765501786893e-04  -2.6749825915382635e-04  -3.0050886974224183e-04  -3.0745663242044561e-04  -2.7038777140499779e-04  -1.7533237478277404e-04  -1.3104972597996129e-05  2.2111909051381455e-04  5.2936256758413845e-04  9.1302641221108313e-04  1.3749089072727374e-03  1.9203284097598910e-03  2.5569822813835226e-03  3.2936891296828936e-03  4.1385518493988003e-03  5.0971483449515345e-03  6.1711210906438239e-03  7.3572092392100987e-03  8.6465823862146261e-03  1.0024368415256711e-02  1.1469410590841826e-02  1.2954390088143128e-02  1.4446441848593996e-02  1.5908308533793859e-02  1.7299977560464880e-02  1.8580665064522293e-02  1.9710951403456776e-02  2.0654842501503526e-02  2.1381536065727010e-02  2.1866717037512886e-02  2.2093280384965375e-02  2.2051465159139631e-02  2.1738461074867977e-02  2.1157605687514132e-02  2.0317318489945543e-02  1.9229920449439733e-02  1.7910469748309833e-02  1.6375713895310548e-02  1.4643225908043435e-02  1.2730760492806293e-02  1.0655841220401483e-02  8.4355704091785538e-03  6.0866425470516242e-03  3.6255337518005270e-03  1.0688374761647689e-03  -1.5662860930801762e-03  -4.2615802763662477e-03  -6.9971186171831120e-03  -9.7507267981718146e-03  -1.2497445858175291e-02  -1.5209087724281489e-02  -1.7853941153977728e-02  -2.0396691809109385e-02  -2.2798620575722187e-02  -2.5018140526163069e-02  -2.7011718285326999e-02  -2.8735201244999068e-02  -3.0145534357183350e-02  -3.1202803730116017e-02  -3.1872489726283891e-02  -3.2127759758360894e-02  -3.1951589710302708e-02  -3.1338483671014820e-02  -3.0295573876743018e-02  -2.8842930932992120e-02  -2.7012997235508106e-02  -2.4849161631582534e-02  -2.2403605568100064e-02  -1.9734649321976765e-02  -1.6903892624539139e-02  -1.3973465861144558e-02  -1.1003680577492948e-02  -8.0512967435272791e-03  -5.1685186828794027e-03  -2.4027051294346750e-03  2.0335220549323548e-04  2.6108451427332524e-03  4.7844071789409507e-03  6.6919812606119969e-03  8.3054010438739518e-03  9.6018254757485669e-03  1.0565915896768059e-02  1.1192358655219972e-02  1.1488102536011529e-02  1.1473599836700678e-02  1.1182480776109711e-02  1.0659442798271825e-02  9.9565946794528681e-03  9.1288982163681698e-03  8.2295519850649358e-03  7.3061048835055065e-03  6.3978214841245041e-03  5.5344666489092406e-03  4.7363583802017021e-03  4.0153342068487688e-03  3.3762076403698956e-03  2.8183339550275051e-03  2.3370170347732921e-03  1.9246301624849531e-03  1.5714623004146108e-03  1.2664193598039529e-03  9.9780127387681054e-04  7.5444435421827326e-04  5.2757528939697792e-04  3.1376810584275499e-04  1.1940753509067135e-04  -3.3255945741536604e-05  -9.9052110381770089e-05  -1.9609422755839448e-05  2.3690169712063472e-05  -4.8095959902635683e-04  -1.1398290066250405e-03  -1.8408462029664205e-03  -2.4850513495739543e-03  -3.0042776818261577e-03  -3.3560837876313527e-03  -3.5209627932705867e-03  -3.5001624038497885e-03  -3.3127629147676509e-03  -2.9915531521763111e-03  -2.5779837601778138e-03  -2.1168282855168808e-03  -1.6512137182106471e-03  -1.2185156576288022e-03  -8.4737159399903602e-04  -5.5584278509348672e-04  -3.5061021561573816e-04  -2.2704732403637558e-04  -1.7005961847142148e-04  -1.5566970809556473e-04  -1.5337730313514308e-04  -1.2925856698859669e-04  -4.9556360755029763e-05  1.1578737716850278e-04  3.9043807138708955e-04  7.9057132404381988e-04  1.3257455564879644e-03  2.0014517617070720e-03  2.8223714538234287e-03  3.7950350014762748e-03  4.9287934677965314e-03  6.2347294714952366e-03  7.7229725008233219e-03  9.3993990247047479e-03  1.1262655323305506e-02  1.3301997031414339e-02  1.5495991199247452e-02  1.7811966977045651e-02  2.0206205691245389e-02  2.2624996563330491e-02  2.5006676777846657e-02  2.7284622588167471e-02  2.9390959598291334e-02  3.1260594724263374e-02  3.2835086784392384e-02  3.4065885890900163e-02  3.4916579795404704e-02  3.5363959447000812e-02  3.5397908344518794e-02  3.5020287070433226e-02  3.4243091426076747e-02  3.3086202590654951e-02  3.1575028123937254e-02  2.9738274553596761e-02  2.7606017917827845e-02  2.5208163847068622e-02  2.2573328317066540e-02  1.9728125457734093e-02  1.6696822643941209e-02  1.3501310214629263e-02  1.0161330525244509e-02  6.6949157426337783e-03  3.1189894566584020e-03  -5.4990556249182704e-04  -4.2947864096556940e-03  -8.0973466095631708e-03  -1.1937042705185636e-02  -1.5790188052547720e-02  -1.9629100614510488e-02  -2.3421362462772110e-02  -2.7129262517103330e-02  -3.0709506326728649e-02  -3.4113284856297749e-02  -3.7286797107953566e-02  -4.0172307625957908e-02  -4.2709796228487737e-02  -4.4839207213609643e-02  -4.6503242226813166e-02  -4.7650558340199330e-02  -4.8239144975007621e-02  -4.8239576587559924e-02  -4.7637785217107834e-02  -4.6436993359139207e-02  -4.4658501244992904e-02  -4.2341140375670237e-02  -3.9539371600915536e-02  -3.6320197210710038e-02  -3.2759235529534816e-02  -2.8936435378517509e-02  -2.4931960496959411e-02  -2.0822739630844585e-02  -1.6680063796835634e-02  -1.2568441905769135e-02  -8.5457258529967328e-03  -4.6643117078032405e-03  -9.7303491885091138e-04  2.4807772272036270e-03  5.6497290857116696e-03  8.4858924233107078e-03  1.0941959620410101e-02  1.2974224581308301e-02  1.4547155264449078e-02  1.5638804643157856e-02  1.6245873017682419e-02  1.6387070171801393e-02  1.6103666130334336e-02  1.5456756007876288e-02  1.4521610109315092e-02  1.3380231641346975e-02  1.2113626740626314e-02  1.0795195484099580e-02  9.4861743687076130e-03  8.2334263268289375e-03  7.0693152323695278e-03  6.0130595426312545e-03  5.0728646761734201e-03  4.2482351077074501e-03  3.5320813265415419e-03  2.9124850853068226e-03  2.3742127282592798e-03  1.9002425842839822e-03  1.4736914052824797e-03  1.0805893396373231e-03  7.1396385587796005e-04  3.7961474908865966e-04  1.0380330625821529e-04  -5.6439085207971504e-05  -2.5657958208890033e-05  2.1264326912083733e-05  -8.3263142865648305e-04  -1.8200178029069262e-03  -2.8204996126635819e-03  -3.7181111561438033e-03  -4.4267804618814003e-03  -4.8915902385168950e-03  -5.0885598095925418e-03  -5.0226123220815256e-03  -4.7233180236110964e-03  -4.2386597433821853e-03  -3.6276341563295138e-03  -2.9527147636458696e-03  -2.2730724388544590e-03  -1.6391278364427703e-03  -1.0886566130784102e-03  -6.4439720327762922e-04  -3.1297679789744659e-04  -8.4977897012121750e-05  6.3924819195986849e-05  1.7070161502776642e-04  2.8149088062764249e-04  4.4698338585990563e-04  7.1712017626411335e-04  1.1360223680976357e-03  1.7383604799999959e-03  2.5482027684096309e-03  3.5806533329739258e-03  4.8455207815360207e-03  6.3513467720582731e-03  8.1078948876290389e-03  1.0125859895034176e-02  1.2413797234429891e-02  1.4973411381359712e-02  1.7794776114495287e-02  2.0852704505499441e-02  2.4104796829007007e-02  2.7491217032702280e-02  3.0936148324090210e-02  3.4350926365772062e-02  3.7638764595352280e-02  4.0700720657275515e-02  4.3442239929778206e-02  4.5779418375358226e-02  4.7644135637328215e-02  4.8987421864314817e-02  4.9780764444278494e-02  5.0015432728486610e-02  4.9700199480604758e-02  4.8858007500372697e-02  4.7522161452096694e-02  4.5732546904289906e-02  4.3532240707150664e-02  4.0964725788209706e-02  3.8071790271745287e-02  3.4892094792510396e-02  3.1460331018346159e-02  2.7806869499634960e-02  2.3957790161719807e-02  1.9935201718128206e-02  1.5757772996048917e-02  1.1441419712213447e-02  7.0001066152170941e-03  2.4467404174127118e-03  -2.2058635508055958e-03  -6.9439516843660181e-03  -1.1751751265445778e-02  -1.6610354656822000e-02  -2.1496593419684476e-02  -2.6381942405303213e-02  -3.1231510071691591e-02  -3.6003193864215417e-02  -4.0647099977033280e-02  -4.5105348007058621e-02  -4.9312394849171777e-02  -5.3196011516349076e-02  -5.6679031119945218e-02  -5.9681939162378635e-02  -6.2126304103059679e-02  -6.3938940772908612e-02  -6.5056569435959208e-02  -6.5430599825464703e-02  -6.5031551547529570e-02  -6.3852557593131534e-02  -6.1911410421992379e-02  -5.9250726331008655e-02  -5.5936018550141547e-02  -5.2051759448390550e-02  -4.7695827266171317e-02  -4.2973005287435820e-02  -3.7988372721548237e-02  -3.2841454133649181e-02  -2.7621871825442228e-02  -2.2407003104245767e-02  -1.7261830078959511e-02  -1.2240838832066097e-02  -7.3915187235440594e-03  -2.7587547732423464e-03  1.6107882102318340e-03  5.6652988250114411e-03  9.3464559343789614e-03  1.2590841674510318e-02  1.5334448386808778e-02  1.7519911811240432e-02  1.9105303903561244e-02  2.0072639875461630e-02  2.0433985459660055e-02  2.0233404648599188e-02  1.9543956172691411e-02  1.8460237650289864e-02  1.7088120767225021e-02  1.5533898071438975e-02  1.3894913287354108e-02  1.2253028997091523e-02  1.0671349938221993e-02  9.1938155633608746e-03  7.8468073675054383e-03  6.6418168904537099e-03  5.5783992328559892e-03  4.6469613895719344e-03  3.8312849802577538e-03  3.1109807545089607e-03  2.4642795804654450e-03  1.8716724930715840e-03  1.3209256800364678e-03  8.1393972082365713e-04  3.7594552896633312e-04  6.7648243346670804e-05  -2.8423575607878506e-05  1.8059686464779864e-05  -1.2618217876601359e-03  -2.6383895384029248e-03  -3.9776414788130028e-03  -5.1467549721221318e-03  -6.0436094883498069e-03  -6.6035080913349449e-03  -6.8015726493625452e-03  -6.6507071118316764e-03  -6.1955041222838698e-03  -5.5032223479752548e-03  -4.6534406191730956e-03  -3.7279742107210025e-03  -2.8022197765827286e-03  -1.9385170482173323e-03  -1.1816039425456334e-03  -5.5593094958664971e-04  -6.4524633451386892e-05  3.1079214631774509e-04  6.0779840628780591e-04  8.8068860798123645e-04  1.1951214255692000e-03  1.6216667042148664e-03  2.2284470009163648e-03  3.0744336288640855e-03  4.2051153128412587e-03  5.6517379496701459e-03  7.4340211359499708e-03  9.5647210088257370e-03  1.2053470960345748e-02  1.4907627192202240e-02  1.8129312055242968e-02  2.1709670164198794e-02  2.5622491703713064e-02  2.9819316975174565e-02  3.4227283167963626e-02  3.8750083793594577e-02  4.3271924624763466e-02  4.7664136984689784e-02  5.1793826341222003e-02  5.5