<?xml version="1.0"?>
<VTKFile type="UnstructuredGrid"  version="0.1"  >
<UnstructuredGrid>
<Piece  NumberOfPoints="16641" NumberOfCells="16384">
<Points>
<DataArray  type="Float64"  NumberOfComponents="3"  format="ascii">0 0 0  0.0078125 0 0  0.015625 0 0  0.0234375 0 0  0.03125 0 0  0.0390625 0 0  0.046875 0 0  0.0546875 0 0  0.0625 0 0  0.0703125 0 0  0.078125 0 0  0.0859375 0 0  0.09375 0 0  0.1015625 0 0  0.109375 0 0  0.1171875 0 0  0.125 0 0  0.1328125 0 0  0.140625 0 0  0.1484375 0 0  0.15625 0 0  0.1640625 0 0  0.171875 0 0  0.1796875 0 0  0.1875 0 0  0.1953125 0 0  0.203125 0 0  0.2109375 0 0  0.21875 0 0  0.2265625 0 0  0.234375 0 0  0.2421875 0 0  0.25 0 0  0.2578125 0 0  0.265625 0 0  0.2734375 0 0  0.28125 0 0  0.2890625 0 0  0.296875 0 0  0.3046875 0 0  0.3125 0 0  0.3203125 0 0  0.328125 0 0  0.3359375 0 0  0.34375 0 0  0.3515625 0 0  0.359375 0 0  0.3671875 0 0  0.375 0 0  0.3828125 0 0  0.390625 0 0  0.3984375 0 0  0.40625 0 0  0.4140625 0 0  0.421875 0 0  0.4296875 0 0  0.4375 0 0  0.4453125 0 0  0.453125 0 0  0.4609375 0 0  0.46875 0 0  0.4765625 0 0  0.484375 0 0  0.4921875 0 0  0.5 0 0  0.5078125 0 0  0.515625 0 0  0.5234375 0 0  0.53125 0 0  0.5390625 0 0  0.546875 0 0  0.5546875 0 0  0.5625 0 0  0.5703125 0 0  0.578125 0 0  0.5859375 0 0  0.59375 0 0  0.6015625 0 0  0.609375 0 0  0.6171875 0 0  0.625 0 0  0.6328125 0 0  0.640625 0 0  0.6484375 0 0  0.65625 0 0  0.6640625 0 0  0.671875 0 0  0.6796875 0 0  0.6875 0 0  0.6953125 0 0  0.703125 0 0  0.7109375 0 0  0.71875 0 0  0.7265625 0 0  0.734375 0 0  0.7421875 0 0  0.75 0 0  0.7578125 0 0  0.765625 0 0  0.7734375 0 0  0.78125 0 0  0.7890625 0 0  0.796875 0 0  0.8046875 0 0  0.8125 0 0  0.8203125 0 0  0.828125 0 0  0.8359375 0 0  0.84375 0 0  0.8515625 0 0  0.859375 0 0  0.8671875 0 0  0.875 0 0  0.8828125 0 0  0.890625 0 0  0.8984375 0 0  0.90625 0 0  0.9140625 0 0  0.921875 0 0  0.9296875 0 0  0.9375 0 0  0.9453125 0 0  0.953125 0 0  0.9609375 0 0  0.96875 0 0  0.9765625 0 0  0.984375 0 0  0.9921875 0 0  1 0 0  0 0.0078125 0  0.0078125 0.0078125 0  0.015625 0.0078125 0  0.0234375 0.0078125 0  0.03125 0.0078125 0  0.0390625 0.0078125 0  0.046875 0.0078125 0  0.0546875 0.0078125 0  0.0625 0.0078125 0  0.0703125 0.0078125 0  0.078125 0.0078125 0  0.0859375 0.0078125 0  0.09375 0.0078125 0  0.1015625 0.0078125 0  0.109375 0.0078125 0  0.1171875 0.0078125 0  0.125 0.0078125 0  0.1328125 0.0078125 0  0.140625 0.0078125 0  0.1484375 0.0078125 0  0.15625 0.0078125 0  0.1640625 0.0078125 0  0.171875 0.0078125 0  0.1796875 0.0078125 0  0.1875 0.0078125 0  0.1953125 0.0078125 0  0.203125 0.0078125 0  0.2109375 0.0078125 0  0.21875 0.0078125 0  0.2265625 0.0078125 0  0.234375 0.0078125 0  0.2421875 0.0078125 0  0.25 0.0078125 0  0.2578125 0.0078125 0  0.265625 0.0078125 0  0.2734375 0.0078125 0  0.28125 0.0078125 0  0.2890625 0.0078125 0  0.296875 0.0078125 0  0.3046875 0.0078125 0  0.3125 0.0078125 0  0.3203125 0.0078125 0  0.328125 0.0078125 0  0.3359375 0.0078125 0  0.34375 0.0078125 0  0.3515625 0.0078125 0  0.359375 0.0078125 0  0.3671875 0.0078125 0  0.375 0.0078125 0  0.3828125 0.0078125 0  0.390625 0.0078125 0  0.3984375 0.0078125 0  0.40625 0.0078125 0  0.4140625 0.0078125 0  0.421875 0.0078125 0  0.4296875 0.0078125 0  0.4375 0.0078125 0  0.4453125 0.0078125 0  0.453125 0.0078125 0  0.4609375 0.0078125 0  0.46875 0.0078125 0  0.4765625 0.0078125 0  0.484375 0.0078125 0  0.4921875 0.0078125 0  0.5 0.0078125 0  0.5078125 0.0078125 0  0.515625 0.0078125 0  0.5234375 0.0078125 0  0.53125 0.0078125 0  0.5390625 0.0078125 0  0.546875 0.0078125 0  0.5546875 0.0078125 0  0.5625 0.0078125 0  0.5703125 0.0078125 0  0.578125 0.0078125 0  0.5859375 0.0078125 0  0.59375 0.0078125 0  0.6015625 0.0078125 0  0.609375 0.0078125 0  0.6171875 0.0078125 0  0.625 0.0078125 0  0.6328125 0.0078125 0  0.640625 0.0078125 0  0.6484375 0.0078125 0  0.65625 0.0078125 0  0.6640625 0.0078125 0  0.671875 0.0078125 0  0.6796875 0.0078125 0  0.6875 0.0078125 0  0.6953125 0.0078125 0  0.703125 0.0078125 0  0.7109375 0.0078125 0  0.71875 0.0078125 0  0.7265625 0.0078125 0  0.734375 0.0078125 0  0.7421875 0.0078125 0  0.75 0.0078125 0  0.7578125 0.0078125 0  0.765625 0.0078125 0  0.7734375 0.0078125 0  0.78125 0.0078125 0  0.7890625 0.0078125 0  0.796875 0.0078125 0  0.8046875 0.0078125 0  0.8125 0.0078125 0  0.8203125 0.0078125 0  0.828125 0.0078125 0  0.8359375 0.0078125 0  0.84375 0.0078125 0  0.8515625 0.0078125 0  0.859375 0.0078125 0  0.8671875 0.0078125 0  0.875 0.0078125 0  0.8828125 0.0078125 0  0.890625 0.0078125 0  0.8984375 0.0078125 0  0.90625 0.0078125 0  0.9140625 0.0078125 0  0.921875 0.0078125 0  0.9296875 0.0078125 0  0.9375 0.0078125 0  0.9453125 0.0078125 0  0.953125 0.0078125 0  0.9609375 0.0078125 0  0.96875 0.0078125 0  0.9765625 0.0078125 0  0.984375 0.0078125 0  0.9921875 0.0078125 0  1 0.0078125 0  0 0.015625 0  0.0078125 0.015625 0  0.015625 0.015625 0  0.0234375 0.015625 0  0.03125 0.015625 0  0.0390625 0.015625 0  0.046875 0.015625 0  0.0546875 0.015625 0  0.0625 0.015625 0  0.0703125 0.015625 0  0.078125 0.015625 0  0.0859375 0.015625 0  0.09375 0.015625 0  0.1015625 0.015625 0  0.109375 0.015625 0  0.1171875 0.015625 0  0.125 0.015625 0  0.1328125 0.015625 0  0.140625 0.015625 0  0.1484375 0.015625 0  0.15625 0.015625 0  0.1640625 0.015625 0  0.171875 0.015625 0  0.1796875 0.015625 0  0.1875 0.015625 0  0.1953125 0.015625 0  0.203125 0.015625 0  0.2109375 0.015625 0  0.21875 0.015625 0  0.2265625 0.015625 0  0.234375 0.015625 0  0.2421875 0.015625 0  0.25 0.015625 0  0.2578125 0.015625 0  0.265625 0.015625 0  0.2734375 0.015625 0  0.28125 0.015625 0  0.2890625 0.015625 0  0.296875 0.015625 0  0.3046875 0.015625 0  0.3125 0.015625 0  0.3203125 0.015625 0  0.328125 0.015625 0  0.3359375 0.015625 0  0.34375 0.015625 0  0.3515625 0.015625 0  0.359375 0.015625 0  0.3671875 0.015625 0  0.375 0.015625 0  0.3828125 0.015625 0  0.390625 0.015625 0  0.3984375 0.015625 0  0.40625 0.015625 0  0.4140625 0.015625 0  0.421875 0.015625 0  0.4296875 0.015625 0  0.4375 0.015625 0  0.4453125 0.015625 0  0.453125 0.015625 0  0.4609375 0.015625 0  0.46875 0.015625 0  0.4765625 0.015625 0  0.484375 0.015625 0  0.4921875 0.015625 0  0.5 0.015625 0  0.5078125 0.015625 0  0.515625 0.015625 0  0.5234375 0.015625 0  0.53125 0.015625 0  0.5390625 0.015625 0  0.546875 0.015625 0  0.5546875 0.015625 0  0.5625 0.015625 0  0.5703125 0.015625 0  0.578125 0.015625 0  0.5859375 0.015625 0  0.59375 0.015625 0  0.6015625 0.015625 0  0.609375 0.015625 0  0.6171875 0.015625 0  0.625 0.015625 0  0.6328125 0.015625 0  0.640625 0.015625 0  0.6484375 0.015625 0  0.65625 0.015625 0  0.6640625 0.015625 0  0.671875 0.015625 0  0.6796875 0.015625 0  0.6875 0.015625 0  0.6953125 0.015625 0  0.703125 0.015625 0  0.7109375 0.015625 0  0.71875 0.015625 0  0.7265625 0.015625 0  0.734375 0.015625 0  0.7421875 0.015625 0  0.75 0.015625 0  0.7578125 0.015625 0  0.765625 0.015625 0  0.7734375 0.015625 0  0.78125 0.015625 0  0.7890625 0.015625 0  0.796875 0.015625 0  0.8046875 0.015625 0  0.8125 0.015625 0  0.8203125 0.015625 0  0.828125 0.015625 0  0.8359375 0.015625 0  0.84375 0.015625 0  0.8515625 0.015625 0  0.859375 0.015625 0  0.8671875 0.015625 0  0.875 0.015625 0  0.8828125 0.015625 0  0.890625 0.015625 0  0.8984375 0.015625 0  0.90625 0.015625 0  0.9140625 0.015625 0  0.921875 0.015625 0  0.9296875 0.015625 0  0.9375 0.015625 0  0.9453125 0.015625 0  0.953125 0.015625 0  0.9609375 0.015625 0  0.96875 0.015625 0  0.9765625 0.015625 0  0.984375 0.015625 0  0.9921875 0.015625 0  1 0.015625 0  0 0.0234375 0  0.0078125 0.0234375 0  0.015625 0.0234375 0  0.0234375 0.0234375 0  0.03125 0.0234375 0  0.0390625 0.0234375 0  0.046875 0.0234375 0  0.0546875 0.0234375 0  0.0625 0.0234375 0  0.0703125 0.0234375 0  0.078125 0.0234375 0  0.0859375 0.0234375 0  0.09375 0.0234375 0  0.1015625 0.0234375 0  0.109375 0.0234375 0  0.1171875 0.0234375 0  0.125 0.0234375 0  0.1328125 0.0234375 0  0.140625 0.0234375 0  0.1484375 0.0234375 0  0.15625 0.0234375 0  0.1640625 0.0234375 0  0.171875 0.0234375 0  0.1796875 0.0234375 0  0.1875 0.0234375 0  0.1953125 0.0234375 0  0.203125 0.0234375 0  0.2109375 0.0234375 0  0.21875 0.0234375 0  0.2265625 0.0234375 0  0.234375 0.0234375 0  0.2421875 0.0234375 0  0.25 0.0234375 0  0.2578125 0.0234375 0  0.265625 0.0234375 0  0.2734375 0.0234375 0  0.28125 0.0234375 0  0.2890625 0.0234375 0  0.296875 0.0234375 0  0.3046875 0.0234375 0  0.3125 0.0234375 0  0.3203125 0.0234375 0  0.328125 0.0234375 0  0.3359375 0.0234375 0  0.34375 0.0234375 0  0.3515625 0.0234375 0  0.359375 0.0234375 0  0.3671875 0.0234375 0  0.375 0.0234375 0  0.3828125 0.0234375 0  0.390625 0.0234375 0  0.3984375 0.0234375 0  0.40625 0.0234375 0  0.4140625 0.0234375 0  0.421875 0.0234375 0  0.4296875 0.0234375 0  0.4375 0.0234375 0  0.4453125 0.0234375 0  0.453125 0.0234375 0  0.4609375 0.0234375 0  0.46875 0.0234375 0  0.4765625 0.0234375 0  0.484375 0.0234375 0  0.4921875 0.0234375 0  0.5 0.0234375 0  0.5078125 0.0234375 0  0.515625 0.0234375 0  0.5234375 0.0234375 0  0.53125 0.0234375 0  0.5390625 0.0234375 0  0.546875 0.0234375 0  0.5546875 0.0234375 0  0.5625 0.0234375 0  0.5703125 0.0234375 0  0.578125 0.0234375 0  0.5859375 0.0234375 0  0.59375 0.0234375 0  0.6015625 0.0234375 0  0.609375 0.0234375 0  0.6171875 0.0234375 0  0.625 0.0234375 0  0.6328125 0.0234375 0  0.640625 0.0234375 0  0.6484375 0.0234375 0  0.65625 0.0234375 0  0.6640625 0.0234375 0  0.671875 0.0234375 0  0.6796875 0.0234375 0  0.6875 0.0234375 0  0.6953125 0.0234375 0  0.703125 0.0234375 0  0.7109375 0.0234375 0  0.71875 0.0234375 0  0.7265625 0.0234375 0  0.734375 0.0234375 0  0.7421875 0.0234375 0  0.75 0.0234375 0  0.7578125 0.0234375 0  0.765625 0.0234375 0  0.7734375 0.0234375 0  0.78125 0.0234375 0  0.7890625 0.0234375 0  0.796875 0.0234375 0  0.8046875 0.0234375 0  0.8125 0.0234375 0  0.8203125 0.0234375 0  0.828125 0.0234375 0  0.8359375 0.0234375 0  0.84375 0.0234375 0  0.8515625 0.0234375 0  0.859375 0.0234375 0  0.8671
[...]
<PointData  Scalars="u_sol"> 
<DataArray  type="Float64"  Name="u_sol"  format="ascii">1.8902657962560072e-06  -1.0226742789930246e-05  -2.1803142351392421e-05  -2.3684491996156749e-05  -1.8444588770793941e-05  -7.5132529421261854e-06  7.3211674371546460e-06  2.4417602598009605e-05  4.2083053803272835e-05  5.8808478610092053e-05  7.3384671400968839e-05  8.5042025637620827e-05  9.3486314643581960e-05  9.8875505044612703e-05  1.0173282862204994e-04  1.0283591810602000e-04  1.0310208132507705e-04  1.0349007714009498e-04  1.0492318520238915e-04  1.0823181129568793e-04  1.1410927993085461e-04  1.2307692822442596e-04  1.3546036252896397e-04  1.5138545922728654e-04  1.7080436709097815e-04  1.9355729353669104e-04  2.1946356320850285e-04  2.4842097098183569e-04  2.8048753531987702e-04  3.1591813825558216e-04  3.5514462841279950e-04  3.9870758211375432e-04  4.4716593109702003e-04  5.0100843802166543e-04  5.6060249599089560e-04  6.2616055470144565e-04  6.9772313253064057e-04  7.7511560972110460e-04  8.5789854073792639e-04  9.4533451656579734e-04  1.0363142120485868e-03  1.1293578483062446e-03  1.2225216950465041e-03  1.3133426979831280e-03  1.3989093506247248e-03  1.4758147054391994e-03  1.5401591478341429e-03  1.5878058336968725e-03  1.6144809411419926e-03  1.6158480395383978e-03  1.5877539358807393e-03  1.5264157045423116e-03  1.4286434198008712e-03  1.2920401412739705e-03  1.1151901802780996e-03  8.9781003826375758e-04  6.4086354378443814e-04  3.4663081691024421e-04  1.8740480224752982e-05  -3.3784454885492523e-04  -7.1685950597814483e-04  -1.1108253040147717e-03  -1.5111202533919237e-03  -1.9081456450019704e-03  -2.2914709403642230e-03  -2.6491839600152611e-03  -2.9704535523330509e-03  -3.2447523788578839e-03  -3.4594789594272705e-03  -3.6029880431880795e-03  -3.6650889091974052e-03  -3.6370618893177237e-03  -3.5125646668236104e-03  -3.2881072588917823e-03  -2.9637449654130350e-03  -2.5435085793927997e-03  -2.0357492740436952e-03  -1.4531814188139794e-03  -8.1265357265840050e-04  -1.3459297191379909e-04  5.5795374741102351e-04  1.2396999572870258e-03  1.8864223498386381e-03  2.4767392990424474e-03  2.9900594055840128e-03  3.4090101651494792e-03  3.7227782840761445e-03  3.9266243714387418e-03  4.0209720879835851e-03  4.0114056720357404e-03  3.9078403759373655e-03  3.7235607988909043e-03  3.4738299238087963e-03  3.1754952501642920e-03  2.8445619548882568e-03  2.4953940232454981e-03  2.1422951138571206e-03  1.7977695312465238e-03  1.4716262217664717e-03  1.1715301196853793e-03  9.0301278629937990e-04  6.6921372190488298e-04  4.7125320279813282e-04  3.0846233603192626e-04  1.7868546260211600e-04  7.8709838399368954e-05  4.6547732772419247e-06  -4.7635114800075954e-05  -8.2294454499311567e-05  -1.0316635875933468e-04  -1.1363557008562449e-04  -1.1656641325246919e-04  -1.1428307810051842e-04  -1.0860662531357663e-04  -1.0091710863406311e-04  -9.2225764273970532e-05  -8.3252492185832951e-05  -7.4488503615260465e-05  -6.6251183425227399e-05  -5.8713594325466586e-05  -5.1924050910762591e-05  -4.5787212996511922e-05  -4.0070682298020045e-05  -3.4335596341308822e-05  -2.8021419562047615e-05  -2.0375909518965222e-05  -1.1072603119438858e-05  -1.3409346374790305e-06  8.3209094200489830e-07  1.2276684143151980e-06  -1.1099386785158467e-05  4.6727617323941906e-05  2.3110276210796502e-04  5.4402699653664799e-04  9.6961733048411001e-04  1.4804989200834812e-03  2.0438461577142620e-03  2.6251064872745982e-03  3.1916220645821138e-03  3.7156897871838102e-03  4.1768124406579695e-03  4.5629217955309199e-03  4.8705263286811925e-03  5.1039242739955781e-03  5.2737201921630294e-03  5.3949276029700427e-03  5.4849094312240396e-03  5.5613503042894474e-03  5.6403920632541087e-03  5.7350268137791646e-03  5.8538369850499134e-03  6.0001866856622442e-03  6.1719715864242131e-03  6.3619935825626368e-03  6.5589228192698013e-03  6.7486645613566848e-03  6.9158138128100491e-03  7.0448202610404109e-03  7.1205618631690996e-03  7.1282096566183594e-03  7.0525069013542127e-03  6.8767709825850783e-03  6.5819891053522208e-03  6.1462583539324952e-03  5.5446984816544592e-03  4.7497625478297350e-03  3.7318468935476283e-03  2.4600476828708462e-03  9.0299984266720233e-04  -9.7008180502517838e-04  -3.1882594299753259e-03  -5.7774221192570694e-03  -8.7587385003754827e-03  -1.2147184517344395e-02  -1.5949982865531922e-02  -2.0165250876381210e-02  -2.4781077776123712e-02  -2.9774800139912180e-02  -3.5112680259264915e-02  -4.0750152665953977e-02  -4.6632449877334885e-02  -5.2695650337046762e-02  -5.8868023554615498e-02  -6.5071591479783086e-02  -7.1223782520930506e-02  -7.7239082337785453e-02  -8.3030590167671781e-02  -8.8511429959681504e-02  -9.3595979870067153e-02  -9.8200938777826943e-02  -1.0224622952280540e-01  -1.0565583601267606e-01  -1.0835854489895473e-01  -1.1028876002620502e-01  -1.1138795872700133e-01  -1.1160331019233963e-01  -1.1089016941797235e-01  -1.0921575965360747e-01  -1.0655822042180578e-01  -1.0290847085072082e-01  -9.8272175585309499e-02  -9.2671174337081663e-02  -8.6145110251208259e-02  -7.8752565047646564e-02  -7.0571902076519560e-02  -6.1701423602961623e-02  -5.2258825029801947e-02  -4.2379725879444503e-02  -3.2215226570389957e-02  -2.1928509992847570e-02  -1.1689862713712565e-02  -1.6730250065780665e-03  7.9503760660683022e-03  1.7019372151399027e-02  2.5388258361853298e-02  3.2930002227419410e-02  3.9541183594964883e-02  4.5145534455090564e-02  4.9695212982535812e-02  5.3170997022268969e-02  5.5581027040922451e-02  5.6958818654851834e-02  5.7359595780134318e-02  5.6858113868331117e-02  5.5545112731754859e-02  5.3521687288738400e-02  5.0897230101998120e-02  4.7787433392252020e-02  4.4310555204095901e-02  4.0584020953800759e-02  3.6721634164324966e-02  3.2829904384605535e-02  2.9004646416843451e-02  2.5328003809304386e-02  2.1866086100190051e-02  1.8667725169269653e-02  1.5764403449811327e-02  1.3171400624842462e-02  1.0889863124299149e-02  8.9095164654629504e-03  7.2116519544809079e-03  5.7720103318660522e-03  4.5633411877246824e-03  3.5574837663638458e-03  2.7269322628841216e-03  2.0459396031210987e-03  1.4912418976858865e-03  1.0425315497851258e-03  6.8276460166470264e-04  3.9837113977248554e-04  1.7934573821672044e-04  1.9167846817059557e-05  -8.5716867148120877e-05  -1.3709840399088157e-04  -1.3758859781631307e-04  -9.5582691403762172e-05  -3.2208434271346037e-05  6.0233498355619386e-06  -7.8960452455489188e-06  3.8578163103049474e-05  2.3146967965670119e-04  6.1492882946732213e-04  1.1916555525191333e-03  1.9385978420430171e-03  2.8149184737166102e-03  3.7702742873599233e-03  4.7512665592456815e-03  5.7071666458142550e-03  6.5945619896543555e-03  7.3807194266750364e-03  8.0454431709159838e-03  8.5814227490900018e-03  8.9932280670360059e-03  9.2952440748675837e-03  9.5088896981234614e-03  9.6594610656711068e-03  9.7728926716833704e-03  9.8726769114629871e-03  9.9771476935173568e-03  1.0097323548742652e-02  1.0235505249899180e-02  1.0384795695331571e-02  1.0529614957712496e-02  1.0647113244825744e-02  1.0709168321738146e-02  1.0684473796957967e-02  1.0540179086647070e-02  1.0242666556236095e-02  9.7573527287389897e-03  9.0477390768538644e-03  8.0742047950264975e-03  6.7930919037181960e-03  5.1565170178793397e-03  3.1129714551068463e-03  6.0861866255374733e-04  -2.4109070499984996e-03  -5.9982332060431074e-03  -1.0201543618590415e-02  -1.5061668339991431e-02  -2.0608921213492514e-02  -2.6860079298502315e-02  -3.3815561283231835e-02  -4.1457015377656607e-02  -4.9745840439070821e-02  -5.8622656193410200e-02  -6.8007847842295868e-02  -7.7803360523243284e-02  -8.7895513544401185e-02  -9.8158561390052301e-02  -1.0845878205141958e-01  -1.1865867945650882e-01  -1.2862100251122374e-01  -1.3821229410794952e-01  -1.4730580159489945e-01  -1.5578366039119779e-01  -1.6353835966444683e-01  -1.7047355763781497e-01  -1.7650436570217018e-01  -1.8155723053674580e-01  -1.8556956063351993e-01  -1.8848919539115042e-01  -1.9027387725684228e-01  -1.9089069147479190e-01  -1.9031528575642517e-01  -1.8853425127251658e-01  -1.8554359692444553e-01  -1.8134685274769727e-01  -1.7595764284186444e-01  -1.6939986519482442e-01  -1.6170852697533367e-01  -1.5293077562504598e-01  -1.4312681280723782e-01  -1.3237087710772194e-01  -1.2075195223542226e-01  -1.0837423596563510e-01  -9.5357124594596013e-02  -8.1834661236858550e-02  -6.7954298958853521e-02  -5.3874929918913732e-02  -3.9764477187841124e-02  -2.5795604224061807e-02  -1.2141963333725371e-02  1.0245741515903838e-03  1.3539268190547970e-02  2.5249455778535768e-02  3.6017850140129690e-02  4.5725590230218181e-02  5.4274831649708852e-02  6.1590398063587085e-02  6.7620797742216812e-02  7.2338255067897886e-02  7.5738982626555318e-02  7.7841625711814383e-02  7.8686687987790646e-02  7.8337944194231179e-02  7.6880844867956516e-02  7.4419863662412850e-02  7.1078149920947173e-02  6.6996494873246076e-02  6.2329184793539966e-02  5.7239548488373260e-02  5.1893795876760851e-02  4.6453517862057279e-02  4.1068077301232013e-02  3.5867558180106396e-02  3.0957444689622395e-02  2.6415636292049179e-02  2.2292098621274660e-02  1.8610873434681818e-02  1.5373837804187367e-02  1.2565459959513040e-02  1.0157784608592884e-02  8.1150809822678194e-03  6.3977978785005217e-03  4.9656804458873948e-03  3.7800982084378698e-03  2.8056865069901048e-03  2.0114662520323008e-03  1.3715613693940450e-03  8.6554824614035338e-04  4.7833771032433810e-04  1.9941456099460729e-04  2.0935383536274417e-05  -6.5416535663439181e-05  -7.4430722753931767e-05  -3.1877313522789490e-05  5.8354961509160078e-06  -1.7680225109081471e-05  8.8669574136175750e-05  4.2276299697585195e-04  9.9970656219081750e-04  1.8106830759441162e-03  2.8226050742936469e-03  3.9838846383271915e-03  5.2321548295656576e-03  6.5019493824363221e-03  7.7315125775747557e-03  8.8682758724099066e-03  9.8726461105287499e-03  1.0719984548851600e-02  1.1400835279910907e-02  1.1919635095456425e-02  1.2292227748126661e-02  1.2542542704201546e-02  1.2698785476973644e-02  1.2789454929566339e-02  1.2839475962255971e-02  1.2866725546150202e-02  1.2879240926418276e-02  1.2873396883227705e-02  1.2833281091618576e-02  1.2731348444382189e-02  1.2530185070894354e-02  1.2184931495266107e-02  1.1645715394429091e-02  1.0859434257320987e-02  9.7704783217655074e-03  8.3204199678259573e-03  6.4471712859303218e-03  4.0843168572356082e-03  1.1612289991096178e-03  -2.3957111462621261e-03  -6.6606256069624541e-03  -1.1704574758112627e-02  -1.7591227599317923e-02  -2.4372110903597692e-02  -3.2081687938163087e-02  -4.0732432874920420e-02  -5.0310555340319661e-02  -6.0772791322400203e-02  -7.2044892404781319e-02  -8.4022222888602893e-02  -9.6572454308599051e-02  -1.0954036717629438e-01  -1.2275431119755220e-01  -1.3603361558219282e-01  -1.4919622145430644e-01  -1.6206579668185520e-01  -1.7447769413912287e-01  -1.8628340314287736e-01  -1.9735333451970136e-01  -2.0757802104019946e-01  -2.1686795034475015e-01  -2.2515234406176021e-01  -2.3237721614184215e-01  -2.3850302841330892e-01  -2.4350220722404603e-01  -2.4735673158100357e-01  -2.5005593787674874e-01  -2.5159465472076781e-01  -2.5197169027811755e-01  -2.5118882321002917e-01  -2.4925073077825971e-01  -2.4616216997263535e-01  -2.4192909698009829e-01  -2.3656127349648812e-01  -2.3007150621673181e-01  -2.2247725755555592e-01  -2.1380208196746939e-01  -2.0407732126990025e-01  -1.9334398511096457e-01  -1.8165459057976954e-01  -1.6907493806610108e-01  -1.5568555895043260e-01  -1.4158271825868421e-01  -1.2687873388025553e-01  -1.1170147799076961e-01  -9.6192919365766322e-02  -8.0506535435341101e-02  -6.4804476653826937e-02  -4.9253274463927597e-02  -3.4018523237217567e-02  -1.9260991978041452e-02  -5.1325888608671740e-03  8.2275375366395540e-03  2.0695607138042610e-02  3.2164647828143197e-02  4.2544899585438452e-02  5.1763258738857156e-02  5.9762367859543343e-02  6.6499057988460092e-02  7.1944147597479191e-02  7.6081908918562799e-02  7.8909199548549955e-02  8.0437919668764082e-02  8.0700382198643422e-02  7.9751669257301705e-02  7.7671208765868929e-02  7.4566968127490738e-02  7.0575579052961357e-02  6.5859529960489840e-02  6.0601415267857492e-02  5.4994525913943701e-02  4.9231446009681247e-02  4.3492055334136075e-02  3.7932955008770773e-02  3.2679871900262468e-02  2.7823942003458831e-02  2.3421882595968585e-02  1.9499341968413179e-02  1.6056320765964430e-02  1.3073482169316045e-02  1.0518389156454616e-02  8.3510399156264785e-03  6.5283715246458110e-03  5.0077290489402917e-03  3.7493928157450273e-03  2.7182905394416302e-03  1.8850217564516504e-03  1.2261796363489271e-03  7.2387826135484094e-04  3.6418047416027883e-04  1.3441988384811459e-04  1.8239875394654283e-05  -9.0003891863074592e-06  1.4536824178823648e-06  -2.6175123440952575e-05  1.3148153871975121e-04  5.9462845631823671e-04  1.3505402455617512e-03  2.3724097859634035e-03  3.6127193511020462e-03  5.0072340852986841e-03  6.4820521933015652e-03  7.9617601197759253e-03  9.3768265658150801e-03  1.0669387359853316e-02  1.1796946959935177e-02  1.2733939916715883e-02  1.3471360771416670e-02  1.4014827461843612e-02  1.4381485891272801e-02  1.4596134528598641e-02  1.4686893672524978e-02  1.4680704463900606e-02  1.4598936854450739e-02  1.4453427254329083e-02  1.4243312412284860e-02  1.3953041523167840e-02  1.3551864795713181e-02  1.2994859009090471e-02  1.2225204342592779e-02  1.1177065687246579e-02  9.7782373956193987e-03  7.9518734220694106e-03  5.6171204545312839e-03  2.6890267832739090e-03  -9.2149804783237671e-04  -5.3066816726707886e-03  -1.0559103742391329e-02  -1.6767080471726082e-02  -2.4008738336729233e-02  -3.2345252499562709e-02  -4.1813700764748316e-02  -5.2420147962966165e-02  -6.4133786446643623e-02  -7.6883128033607806e-02  -9.0554980506614979e-02  -1.0499686919088484e-01  -1.2002300457115131e-01  -1.3542332513363742e-01  -1.5097469566065405e-01  -1.6645285540315194e-01  -1.8164370092785070e-01  -1.9635268054717256e-01  -2.1041148354755368e-01  -2.2368170176445012e-01  -2.3605561980257708e-01  -2.4745460912377254e-01  -2.5782579965807140e-01  -2.6713773027090548e-01  -2.7537561236070957e-01  -2.8253669970658141e-01  -2.8862610674999295e-01  -2.9365326835561217e-01  -2.9762911938224679e-01  -3.0056398336127244e-01  -3.0246611498417258e-01  -3.0334080375579020e-01  -3.0318996891637917e-01  -3.0201212552034851e-01  -2.9980197658117003e-01  -2.9655290893103520e-01  -2.9225770626993902e-01  -2.8690811341964001e-01  -2.8049716904297523e-01  -2.7302054542117754e-01  -2.6447844265422388e-01  -2.5487769190668652e-01  -2.4423403692071635e-01  -2.3257458618748089e-01  -2.1994024750764737e-01  -2.0638803783944581e-01  -1.9199300724960250e-01  -1.7684955207213240e-01  -1.6107182298113135e-01  -1.4479298834304716e-01  -1.2816324625496414e-01  -1.1134612705853152e-01  -9.4513816890213126e-02  -7.7841676759035069e-02  -6.1501603603721700e-02  -4.5655830612197176e-02  -3.0451601372335629e-02  -1.6017071392160274e-02  -2.4590868243762978e-03  1.0136995715997315e-02  2.1705582371292761e-02  3.2197444729084153e-02  4.1575646614358787e-02  4.9810662172838457e-02  5.6876787616285555e-02  6.2750415113996219e-02  6.7409325346234825e-02  7.0831927361453370e-02  7.3003591181501321e-02  7.3926046565021553e-02  7.3622494299233843e-02  7.2146141916383910e-02  6.9586961109589437e-02  6.6073544957757385e-02  6.1770610121776884e-02  5.6870643100916191e-02  5.1581062265465813e-02  4.6108841706315545e-02  4.0645355802586020e-02  3.5354029108202997e-02  3.0362550260088512e-02  2.5760164023235683e-02  2.1599462565201049e-02  1.7901385763466050e-02  1.4661919036599634e-02  1.1859167836946301e-02  9.4599265940991106e-03  7.4251973431588994e-03  5.7145252707300779e-03  4.2892307488622237e-03  3.1146259466955828e-03  2.1613295410442424e-03  1.4057080380431659e-03  8.2932565351525656e-04  4.1740601390839239e-04  1.5549872074514036e-04  2.5721055614321982e-05  -5.3414732906329165e-06  -3.3362200417323996e-05  1.6725863733116071e-04  7.4565367789279581e-04  1.6667661431121977e-03  2.8831121096182031e-03  4.3286012266039384e-03  5.9227231148828276e-03  7.5779011890723513e-03  9.2083052696267514e-03  1.0737726354834692e-02  1.2105359394577572e-02  1.3268939933132077e-02  1.4205318760125461e-02  1.4908913731006883e-02  1.5388625794637944e-02  1.5663765845641102e-02  1.5759412015933037e-02  1.5701489062351855e-02  1.5511794460451415e-02  1.5203226183767699e-02  1.4775553903144950e-02  1.4212191964517786e-02  1.3478462242182116e-02  1.2521681154825557e-02  1.1273046312058129e-02  9.6507845941189250e-03  7.5636419265682512e-03  4.9137895657662013e-03  1.5985923864676455e-03  -2.4885698788185439e-03  -7.4573015131153362e-03  -1.3417595731784868e-02  -2.0474889634738910e-02  -2.8722810098743116e-02  -3.8234145768106478e-02  -4.9051043748162187e-02  -6.1175712929932478e-02  -7.4562874834550805e-02  -8.9115185367882169e-02  -1.0468284138079526e-01  -1.2106821605143578e-01  -1.3803565349819061e-01  -1.5532550390868283e-01  -1.7267062176751877e-01  -1.8981306396193506e-01  -2.0651870521190585e-01  -2.2258804667508406e-01  -2.3786231421681742e-01  -2.5222484198644585e-01  -2.6559845819617584e-01  -2.7794003698714553e-01  -2.8923349599424880e-01  -2.9948239897030499e-01  -3.0870304209765614e-01  -3.1691857398937345e-01  -3.2415439367464077e-01  -3.3043483983307315e-01  -3.3578102625964928e-01  -3.4020960247247567e-01  -3.4373219910136538e-01  -3.4635533981642730e-01  -3.4808063661148853e-01  -3.4890514119072585e-01  -3.4882176681409982e-01  -3.4781968167054650e-01  -3.4588536663992064e-01  -3.4300214544255386e-01  -3.3915049629177413e-01  -3.3430960993930320e-01  -3.2845783214721247e-01  -3.2157394765605590e-01  -3.1363868197037764e-01  -3.0463657868594590e-01  -2.9455832703556806e-01  -2.8340347750909323e-01  -2.7118354241900067e-01  -2.5792531453177536e-01  -2.4367422212261128e-01  -2.2849739370466760e-01  -2.1248605888035824e-01  -1.9575683574309727e-01  -1.7845141566803419e-01  -1.6073447235495447e-01  -1.4278931017675531e-01  -1.2481137173735449e-01  -1.0700032746724671e-01  -8.9550996686756590e-02  -7.2644196354105628e-02  -5.6438675726265368e-02  -4.1065080571496729e-02  -2.6622764601892650e-02  -1.3179854933423751e-02  -7.7644406106994255e-04  1.0569415639408514e-02  2.0854270483032709e-02  3.0080730429268992e-02  3.8249490093366353e-02  4.5353094577377497e-02  5.1374852904645114e-02  5.6286749997580147e-02  6.0051242286073385e-02  6.2633533532502783e-02  6.4011472741773476e-02  6.4186967520935986e-02  6.3198515022797885e-02  6.1128734425285568e-02  5.8106541208401419e-02  5.4301954976669314e-02  4.9914158760816188e-02  4.5154944751161066e-02  4.0230799597104329e-02  3.5326981309831910e-02  3.0596175378436632e-02  2.6152831802277423e-02  2.2072886431756512e-02  1.8397585672040761e-02  1.5139751795090811e-02  1.2290915377793562e-02  9.8282398264628399e-03  7.7205626663837835e-03  5.9332821259777671e-03  4.4321417183890216e-03  3.1859939458070965e-03  2.1686641013692492e-03  1.3599460064878295e-03  7.4570325509109745e-04  3.1674746232230970e-04  6.6679186468735407e-05  -1.3395980820149459e-05  -3.9868901819891569e-05  1.9956366960830821e-04  8.8566991956986790e-04  1.9643602596057770e-03  3.3658876647272053e-03  5.0018477585095176e-03  6.7714002804313955e-03  8.5702983038268375e-03  1.0300978485938153e-02  1.1881034350819875e-02  1.3248704428738602e-02  1.4364904660080008e-02  1.5212165107089578e-02  1.5791270246402738e-02  1.6116489850403887e-02  1.6210122114142127e-02  1.6096812473178550e-02  1.5797893374239858e-02  1.5325914275658541e-02  1.4679590749590717e-02  1.3839587685904917e-02  1.2765716917040306e-02  1.1396124437900137e-02  9.6487484637717610e-03  7.4247555961914668e-03  4.6130753115318250e-03  1.0947743896877378e-03  -3.2537191785876043e-03  -8.5583787005409761e-03  -1.4945065521048458e-02  -2.2535227700535135e-02  -3.1438592257734849e-02  -4.1742606353780881e-02  -5.3499871853768644e-02  -6.6715732438752173e-02  -8.1338117890562528e-02  -9.7251511030335552e-02  -1.1427669311294388e-01  -1.3217737464119325e-01  -1.5067376408986899e-01  -1.6946172427349387e-01  -1.882348