<?xml version="1.0"?>
<VTKFile type="UnstructuredGrid"  version="0.1"  >
<UnstructuredGrid>
<Piece  NumberOfPoints="16641" NumberOfCells="16384">
<Points>
<DataArray  type="Float64"  NumberOfComponents="3"  format="ascii">0 0 0  0.0078125 0 0  0.015625 0 0  0.0234375 0 0  0.03125 0 0  0.0390625 0 0  0.046875 0 0  0.0546875 0 0  0.0625 0 0  0.0703125 0 0  0.078125 0 0  0.0859375 0 0  0.09375 0 0  0.1015625 0 0  0.109375 0 0  0.1171875 0 0  0.125 0 0  0.1328125 0 0  0.140625 0 0  0.1484375 0 0  0.15625 0 0  0.1640625 0 0  0.171875 0 0  0.1796875 0 0  0.1875 0 0  0.1953125 0 0  0.203125 0 0  0.2109375 0 0  0.21875 0 0  0.2265625 0 0  0.234375 0 0  0.2421875 0 0  0.25 0 0  0.2578125 0 0  0.265625 0 0  0.2734375 0 0  0.28125 0 0  0.2890625 0 0  0.296875 0 0  0.3046875 0 0  0.3125 0 0  0.3203125 0 0  0.328125 0 0  0.3359375 0 0  0.34375 0 0  0.3515625 0 0  0.359375 0 0  0.3671875 0 0  0.375 0 0  0.3828125 0 0  0.390625 0 0  0.3984375 0 0  0.40625 0 0  0.4140625 0 0  0.421875 0 0  0.4296875 0 0  0.4375 0 0  0.4453125 0 0  0.453125 0 0  0.4609375 0 0  0.46875 0 0  0.4765625 0 0  0.484375 0 0  0.4921875 0 0  0.5 0 0  0.5078125 0 0  0.515625 0 0  0.5234375 0 0  0.53125 0 0  0.5390625 0 0  0.546875 0 0  0.5546875 0 0  0.5625 0 0  0.5703125 0 0  0.578125 0 0  0.5859375 0 0  0.59375 0 0  0.6015625 0 0  0.609375 0 0  0.6171875 0 0  0.625 0 0  0.6328125 0 0  0.640625 0 0  0.6484375 0 0  0.65625 0 0  0.6640625 0 0  0.671875 0 0  0.6796875 0 0  0.6875 0 0  0.6953125 0 0  0.703125 0 0  0.7109375 0 0  0.71875 0 0  0.7265625 0 0  0.734375 0 0  0.7421875 0 0  0.75 0 0  0.7578125 0 0  0.765625 0 0  0.7734375 0 0  0.78125 0 0  0.7890625 0 0  0.796875 0 0  0.8046875 0 0  0.8125 0 0  0.8203125 0 0  0.828125 0 0  0.8359375 0 0  0.84375 0 0  0.8515625 0 0  0.859375 0 0  0.8671875 0 0  0.875 0 0  0.8828125 0 0  0.890625 0 0  0.8984375 0 0  0.90625 0 0  0.9140625 0 0  0.921875 0 0  0.9296875 0 0  0.9375 0 0  0.9453125 0 0  0.953125 0 0  0.9609375 0 0  0.96875 0 0  0.9765625 0 0  0.984375 0 0  0.9921875 0 0  1 0 0  0 0.0078125 0  0.0078125 0.0078125 0  0.015625 0.0078125 0  0.0234375 0.0078125 0  0.03125 0.0078125 0  0.0390625 0.0078125 0  0.046875 0.0078125 0  0.0546875 0.0078125 0  0.0625 0.0078125 0  0.0703125 0.0078125 0  0.078125 0.0078125 0  0.0859375 0.0078125 0  0.09375 0.0078125 0  0.1015625 0.0078125 0  0.109375 0.0078125 0  0.1171875 0.0078125 0  0.125 0.0078125 0  0.1328125 0.0078125 0  0.140625 0.0078125 0  0.1484375 0.0078125 0  0.15625 0.0078125 0  0.1640625 0.0078125 0  0.171875 0.0078125 0  0.1796875 0.0078125 0  0.1875 0.0078125 0  0.1953125 0.0078125 0  0.203125 0.0078125 0  0.2109375 0.0078125 0  0.21875 0.0078125 0  0.2265625 0.0078125 0  0.234375 0.0078125 0  0.2421875 0.0078125 0  0.25 0.0078125 0  0.2578125 0.0078125 0  0.265625 0.0078125 0  0.2734375 0.0078125 0  0.28125 0.0078125 0  0.2890625 0.0078125 0  0.296875 0.0078125 0  0.3046875 0.0078125 0  0.3125 0.0078125 0  0.3203125 0.0078125 0  0.328125 0.0078125 0  0.3359375 0.0078125 0  0.34375 0.0078125 0  0.3515625 0.0078125 0  0.359375 0.0078125 0  0.3671875 0.0078125 0  0.375 0.0078125 0  0.3828125 0.0078125 0  0.390625 0.0078125 0  0.3984375 0.0078125 0  0.40625 0.0078125 0  0.4140625 0.0078125 0  0.421875 0.0078125 0  0.4296875 0.0078125 0  0.4375 0.0078125 0  0.4453125 0.0078125 0  0.453125 0.0078125 0  0.4609375 0.0078125 0  0.46875 0.0078125 0  0.4765625 0.0078125 0  0.484375 0.0078125 0  0.4921875 0.0078125 0  0.5 0.0078125 0  0.5078125 0.0078125 0  0.515625 0.0078125 0  0.5234375 0.0078125 0  0.53125 0.0078125 0  0.5390625 0.0078125 0  0.546875 0.0078125 0  0.5546875 0.0078125 0  0.5625 0.0078125 0  0.5703125 0.0078125 0  0.578125 0.0078125 0  0.5859375 0.0078125 0  0.59375 0.0078125 0  0.6015625 0.0078125 0  0.609375 0.0078125 0  0.6171875 0.0078125 0  0.625 0.0078125 0  0.6328125 0.0078125 0  0.640625 0.0078125 0  0.6484375 0.0078125 0  0.65625 0.0078125 0  0.6640625 0.0078125 0  0.671875 0.0078125 0  0.6796875 0.0078125 0  0.6875 0.0078125 0  0.6953125 0.0078125 0  0.703125 0.0078125 0  0.7109375 0.0078125 0  0.71875 0.0078125 0  0.7265625 0.0078125 0  0.734375 0.0078125 0  0.7421875 0.0078125 0  0.75 0.0078125 0  0.7578125 0.0078125 0  0.765625 0.0078125 0  0.7734375 0.0078125 0  0.78125 0.0078125 0  0.7890625 0.0078125 0  0.796875 0.0078125 0  0.8046875 0.0078125 0  0.8125 0.0078125 0  0.8203125 0.0078125 0  0.828125 0.0078125 0  0.8359375 0.0078125 0  0.84375 0.0078125 0  0.8515625 0.0078125 0  0.859375 0.0078125 0  0.8671875 0.0078125 0  0.875 0.0078125 0  0.8828125 0.0078125 0  0.890625 0.0078125 0  0.8984375 0.0078125 0  0.90625 0.0078125 0  0.9140625 0.0078125 0  0.921875 0.0078125 0  0.9296875 0.0078125 0  0.9375 0.0078125 0  0.9453125 0.0078125 0  0.953125 0.0078125 0  0.9609375 0.0078125 0  0.96875 0.0078125 0  0.9765625 0.0078125 0  0.984375 0.0078125 0  0.9921875 0.0078125 0  1 0.0078125 0  0 0.015625 0  0.0078125 0.015625 0  0.015625 0.015625 0  0.0234375 0.015625 0  0.03125 0.015625 0  0.0390625 0.015625 0  0.046875 0.015625 0  0.0546875 0.015625 0  0.0625 0.015625 0  0.0703125 0.015625 0  0.078125 0.015625 0  0.0859375 0.015625 0  0.09375 0.015625 0  0.1015625 0.015625 0  0.109375 0.015625 0  0.1171875 0.015625 0  0.125 0.015625 0  0.1328125 0.015625 0  0.140625 0.015625 0  0.1484375 0.015625 0  0.15625 0.015625 0  0.1640625 0.015625 0  0.171875 0.015625 0  0.1796875 0.015625 0  0.1875 0.015625 0  0.1953125 0.015625 0  0.203125 0.015625 0  0.2109375 0.015625 0  0.21875 0.015625 0  0.2265625 0.015625 0  0.234375 0.015625 0  0.2421875 0.015625 0  0.25 0.015625 0  0.2578125 0.015625 0  0.265625 0.015625 0  0.2734375 0.015625 0  0.28125 0.015625 0  0.2890625 0.015625 0  0.296875 0.015625 0  0.3046875 0.015625 0  0.3125 0.015625 0  0.3203125 0.015625 0  0.328125 0.015625 0  0.3359375 0.015625 0  0.34375 0.015625 0  0.3515625 0.015625 0  0.359375 0.015625 0  0.3671875 0.015625 0  0.375 0.015625 0  0.3828125 0.015625 0  0.390625 0.015625 0  0.3984375 0.015625 0  0.40625 0.015625 0  0.4140625 0.015625 0  0.421875 0.015625 0  0.4296875 0.015625 0  0.4375 0.015625 0  0.4453125 0.015625 0  0.453125 0.015625 0  0.4609375 0.015625 0  0.46875 0.015625 0  0.4765625 0.015625 0  0.484375 0.015625 0  0.4921875 0.015625 0  0.5 0.015625 0  0.5078125 0.015625 0  0.515625 0.015625 0  0.5234375 0.015625 0  0.53125 0.015625 0  0.5390625 0.015625 0  0.546875 0.015625 0  0.5546875 0.015625 0  0.5625 0.015625 0  0.5703125 0.015625 0  0.578125 0.015625 0  0.5859375 0.015625 0  0.59375 0.015625 0  0.6015625 0.015625 0  0.609375 0.015625 0  0.6171875 0.015625 0  0.625 0.015625 0  0.6328125 0.015625 0  0.640625 0.015625 0  0.6484375 0.015625 0  0.65625 0.015625 0  0.6640625 0.015625 0  0.671875 0.015625 0  0.6796875 0.015625 0  0.6875 0.015625 0  0.6953125 0.015625 0  0.703125 0.015625 0  0.7109375 0.015625 0  0.71875 0.015625 0  0.7265625 0.015625 0  0.734375 0.015625 0  0.7421875 0.015625 0  0.75 0.015625 0  0.7578125 0.015625 0  0.765625 0.015625 0  0.7734375 0.015625 0  0.78125 0.015625 0  0.7890625 0.015625 0  0.796875 0.015625 0  0.8046875 0.015625 0  0.8125 0.015625 0  0.8203125 0.015625 0  0.828125 0.015625 0  0.8359375 0.015625 0  0.84375 0.015625 0  0.8515625 0.015625 0  0.859375 0.015625 0  0.8671875 0.015625 0  0.875 0.015625 0  0.8828125 0.015625 0  0.890625 0.015625 0  0.8984375 0.015625 0  0.90625 0.015625 0  0.9140625 0.015625 0  0.921875 0.015625 0  0.9296875 0.015625 0  0.9375 0.015625 0  0.9453125 0.015625 0  0.953125 0.015625 0  0.9609375 0.015625 0  0.96875 0.015625 0  0.9765625 0.015625 0  0.984375 0.015625 0  0.9921875 0.015625 0  1 0.015625 0  0 0.0234375 0  0.0078125 0.0234375 0  0.015625 0.0234375 0  0.0234375 0.0234375 0  0.03125 0.0234375 0  0.0390625 0.0234375 0  0.046875 0.0234375 0  0.0546875 0.0234375 0  0.0625 0.0234375 0  0.0703125 0.0234375 0  0.078125 0.0234375 0  0.0859375 0.0234375 0  0.09375 0.0234375 0  0.1015625 0.0234375 0  0.109375 0.0234375 0  0.1171875 0.0234375 0  0.125 0.0234375 0  0.1328125 0.0234375 0  0.140625 0.0234375 0  0.1484375 0.0234375 0  0.15625 0.0234375 0  0.1640625 0.0234375 0  0.171875 0.0234375 0  0.1796875 0.0234375 0  0.1875 0.0234375 0  0.1953125 0.0234375 0  0.203125 0.0234375 0  0.2109375 0.0234375 0  0.21875 0.0234375 0  0.2265625 0.0234375 0  0.234375 0.0234375 0  0.2421875 0.0234375 0  0.25 0.0234375 0  0.2578125 0.0234375 0  0.265625 0.0234375 0  0.2734375 0.0234375 0  0.28125 0.0234375 0  0.2890625 0.0234375 0  0.296875 0.0234375 0  0.3046875 0.0234375 0  0.3125 0.0234375 0  0.3203125 0.0234375 0  0.328125 0.0234375 0  0.3359375 0.0234375 0  0.34375 0.0234375 0  0.3515625 0.0234375 0  0.359375 0.0234375 0  0.3671875 0.0234375 0  0.375 0.0234375 0  0.3828125 0.0234375 0  0.390625 0.0234375 0  0.3984375 0.0234375 0  0.40625 0.0234375 0  0.4140625 0.0234375 0  0.421875 0.0234375 0  0.4296875 0.0234375 0  0.4375 0.0234375 0  0.4453125 0.0234375 0  0.453125 0.0234375 0  0.4609375 0.0234375 0  0.46875 0.0234375 0  0.4765625 0.0234375 0  0.484375 0.0234375 0  0.4921875 0.0234375 0  0.5 0.0234375 0  0.5078125 0.0234375 0  0.515625 0.0234375 0  0.5234375 0.0234375 0  0.53125 0.0234375 0  0.5390625 0.0234375 0  0.546875 0.0234375 0  0.5546875 0.0234375 0  0.5625 0.0234375 0  0.5703125 0.0234375 0  0.578125 0.0234375 0  0.5859375 0.0234375 0  0.59375 0.0234375 0  0.6015625 0.0234375 0  0.609375 0.0234375 0  0.6171875 0.0234375 0  0.625 0.0234375 0  0.6328125 0.0234375 0  0.640625 0.0234375 0  0.6484375 0.0234375 0  0.65625 0.0234375 0  0.6640625 0.0234375 0  0.671875 0.0234375 0  0.6796875 0.0234375 0  0.6875 0.0234375 0  0.6953125 0.0234375 0  0.703125 0.0234375 0  0.7109375 0.0234375 0  0.71875 0.0234375 0  0.7265625 0.0234375 0  0.734375 0.0234375 0  0.7421875 0.0234375 0  0.75 0.0234375 0  0.7578125 0.0234375 0  0.765625 0.0234375 0  0.7734375 0.0234375 0  0.78125 0.0234375 0  0.7890625 0.0234375 0  0.796875 0.0234375 0  0.8046875 0.0234375 0  0.8125 0.0234375 0  0.8203125 0.0234375 0  0.828125 0.0234375 0  0.8359375 0.0234375 0  0.84375 0.0234375 0  0.8515625 0.0234375 0  0.859375 0.0234375 0  0.8671
[...]
<PointData  Scalars="v_sol"> 
<DataArray  type="Float64"  Name="v_sol"  format="ascii">-1.8795718914771137e-06  -1.1109363960659668e-06  9.0091428219299465e-06  2.1082505148515017e-05  3.2337079002191222e-05  4.1455075059453548e-05  4.7763814295878288e-05  5.0954932317541081e-05  5.1050896170201952e-05  4.8379452446660960e-05  4.3515080670862554e-05  3.7192824887456585e-05  3.0206781232544451e-05  2.3314885043918182e-05  1.7162880092302718e-05  1.2235148098914146e-05  8.8315686536140031e-06  7.0653542647508789e-06  6.8747892418745836e-06  8.0438011028958889e-06  1.0229007012428000e-05  1.2994877688158518e-05  1.5858503997976250e-05  1.8343732622008293e-05  2.0038033043021980e-05  2.0640155397119142e-05  1.9985107476345023e-05  1.8035531784199090e-05  1.4838037298955922e-05  1.0458811046529762e-05  4.9196450454754355e-06  -1.8431021344045661e-06  -9.9893044742087091e-06  -1.9755977141168963e-05  -3.1421948173026465e-05  -4.5259723320554014e-05  -6.1508687997234861e-05  -8.0350715976606563e-05  -1.0191955634924866e-04  -1.2628434441161091e-04  -1.5343460896151490e-04  -1.8326940913679539e-04  -2.1555145182995919e-04  -2.4993045519459544e-04  -2.8591943521174022e-04  -3.2289265130437482e-04  -3.6011216812962339e-04  -3.9673712751611196e-04  -4.3184312270484510e-04  -4.6445958189808166e-04  -4.9360437335090046e-04  -5.1831802177931395e-04  -5.3769905693176723e-04  -5.5093389157940718e-04  -5.5732155406925787e-04  -5.5628944246946164e-04  -5.4740195160542455e-04  -5.3035953838473100e-04  -5.0499524879067854e-04  -4.7126234831790307e-04  -4.2923118005659504e-04  -3.7907014611474364e-04  -3.2106602528412679e-04  -2.5556992311596239e-04  -1.8316385027497786e-04  -1.0438194893993312e-04  -1.9621011967863679e-05  6.9935891526993276e-05  1.6324456036728220e-04  2.5906280457092573e-04  3.5593729777671829e-04  4.5222697056970475e-04  5.4610106973810647e-04  6.3557105053349712e-04  7.1853130380887726e-04  7.9281765717140553e-04  8.5629166167988646e-04  9.0692376224220503e-04  9.4291891823930745e-04  9.6278958318178945e-04  9.6555494951176444e-04  9.5067232237194485e-04  9.1815208967080354e-04  8.6878716195252278e-04  8.0404931423595587e-04  7.2583702905691151e-04  6.3657015713739602e-04  5.3903144651418374e-04  4.3626833059649746e-04  3.3134017324578768e-04  2.2720702780034747e-04  1.2657874349420847e-04  3.1820120566828077e-05  -5.5138136217762689e-05  -1.3261807697979953e-04  -1.9958481608107608e-04  -2.5553266519774540e-04  -3.0002144276059705e-04  -3.3282081975206284e-04  -3.5430868925485220e-04  -3.6505703903019613e-04  -3.6587082938840948e-04  -3.5792046478202224e-04  -3.4256806815941547e-04  -3.2135890953672853e-04  -2.9591207025777991e-04  -2.6782059648641310e-04  -2.3855347995497837e-04  -2.0937682325358991e-04  -1.8130470144164245e-04  -1.5507994636689546e-04  -1.3118362578640023e-04  -1.0986780522248149e-04  -9.1197176865682881e-05  -7.5098132116394192e-05  -6.1400329078245246e-05  -4.9872214443489719e-05  -4.0246112733896776e-05  -3.2229433685177565e-05  -2.5514729697917135e-05  -1.9781901923294238e-05  -1.4710920132911038e-05  -9.9985496167415380e-06  -5.4170665675174208e-06  -8.9072363522070500e-07  3.3025449780500211e-06  6.2655660689258425e-06  6.0513520280917187e-06  8.4318009490991851e-07  1.0180734810431531e-05  1.0908963812228847e-05  -4.3728170211207005e-05  -1.0586688671728832e-04  -1.6338830701909720e-04  -2.0973510841370551e-04  -2.4173245247273716e-04  -2.5780984912324536e-04  -2.5811387983855019e-04  -2.4432892265875125e-04  -2.1941304483048669e-04  -1.8713673389103276e-04  -1.5156398373481804e-04  -1.1655873582151036e-04  -8.5399468075009782e-05  -6.0532532854261904e-05  -4.3461587065037800e-05  -3.4742679253993107e-05  -3.4048291136267285e-05  -4.0272419731185406e-05  -5.1666706390377869e-05  -6.6015653861586048e-05  -8.0862421288834180e-05  -9.3784086999909699e-05  -1.0268454448688904e-04  -1.0604279504148005e-04  -1.0304248183686193e-04  -9.3526529503739776e-05  -7.7773395481417894e-05  -5.6161082821342815e-05  -2.8831831693048648e-05  4.5279571840738285e-06  4.4737068979786850e-05  9.3007287843616739e-05  1.5074044889772776e-04  2.1931089501020013e-04  2.9992066555154011e-04  3.9351839086178709e-04  5.0078050991664519e-04  6.2205974494968289e-04  7.5730596628161180e-04  9.0597918139614052e-04  1.0669575263393364e-03  1.2384891155129813e-03  1.4181532789057576e-03  1.6029059319147998e-03  1.7891051613976262e-03  1.9725457967501182e-03  2.1486980658817780e-03  2.3127999506072209e-03  2.4600424441018659e-03  2.5857390735398167e-03  2.6854893796772481e-03  2.7553147435665525e-03  2.7917644129574282e-03  2.7919825237833250e-03  2.7537375040778546e-03  2.6754177204676905e-03  2.5560038244785217e-03  2.3950275913866177e-03  2.1925304831896973e-03  1.9490373541794198e-03  1.6655400504376405e-03  1.3435399482600024e-03  9.8503285571494362e-04  5.9234023470680467e-04  1.6888695611208188e-04  -2.8137390109398758e-04  -7.5383794970112713e-04  -1.2421173041972367e-03  -1.7390616984783278e-03  -2.2362524286074939e-03  -2.7241305316015787e-03  -3.1920608920802409e-03  -3.6285709645326992e-03  -4.0216806485005039e-03  -4.3593683178352128e-03  -4.6301412780840540e-03  -4.8236867031325494e-03  -4.9315672590023599e-03  -4.9478291833784287e-03  -4.8694233851401094e-03  -4.6977360346806647e-03  -4.4370609691012832e-03  -4.0946915459767787e-03  -3.6819905303381688e-03  -3.2132883559409953e-03  -2.7040698234880702e-03  -2.1707613076746802e-03  -1.6297595102267607e-03  -1.0964909684284697e-03  -5.8474228725587443e-04  -1.0621965762277056e-04  3.2958612072367616e-04  7.1596806581134030e-04  1.0479437638703094e-03  1.3227142708532363e-03  1.5391270064893819e-03  1.6971330513487295e-03  1.7985800480277800e-03  1.8466466798573355e-03  1.8457266237369354e-03  1.8016413966477310e-03  1.7212707344361690e-03  1.6122892666082060e-03  1.4827282880188559e-03  1.3404700012760510e-03  1.1927850670479536e-03  1.0459367125694775e-03  9.0491949894660594e-04  7.7338562023230282e-04  6.5368796011463972e-04  5.4703771540135751e-04  4.5372158354199476e-04  3.7333793208146329e-04  3.0501128504977789e-04  2.4756648756591734e-04  1.9964896163552874e-04  1.5979000525947156e-04  1.2644099310844860e-04  9.7993920624816190e-05  7.2820799232527122e-05  4.9384705347961828e-05  2.6473255636022877e-05  3.6502312019835431e-06  -1.7797726954477747e-05  -3.3588866784186958e-05  -3.2157394154591002e-05  -1.4108439564151634e-06  2.1916870410000970e-05  -4.3170252472891784e-05  -2.4353533214535662e-04  -4.7319732181962771e-04  -6.8875832948354226e-04  -8.6440593550849397e-04  -9.8615978281232485e-04  -1.0474394213123182e-03  -1.0484414780358407e-03  -9.9529473467404911e-04  -8.9886572779446987e-04  -7.7309247440573645e-04  -6.3311862484083142e-04  -4.9352394854033010e-04  -3.6688337504870350e-04  -2.6277819735518051e-04  -1.8726682772055971e-04  -1.4274443141429593e-04  -1.2809064428033004e-04  -1.3902368206888873e-04  -1.6862889647851847e-04  -2.0807160188877867e-04  -2.4751232365642655e-04  -2.7718690900127715e-04  -2.8851868684637489e-04  -2.7503128631449036e-04  -2.3279861869984113e-04  -1.6025610259546975e-04  -5.7393566721685643e-05  7.5429379139785565e-05  2.3865280743366469e-04  4.3427163777717213e-04  6.6593321724299763e-04  9.3842891230899988e-04  1.2568679673531800e-03  1.6258729574461913e-03  2.0489560660458699e-03  2.5280952224168377e-03  3.0634167352981429e-03  3.6529168602151187e-03  4.2921810175792453e-03  4.9741135985138050e-03  5.6887402305395001e-03  6.4232529135286312e-03  7.1622387938198150e-03  7.8881019286579142e-03  8.5817548374207808e-03  9.2234502812349618e-03  9.7935804692109302e-03  1.0273644906241322e-02  1.0647041017212764e-02  1.0899719570930878e-02  1.1020618461434310e-02  1.1001867363803106e-02  1.0838767176059836e-02  1.0529585483209846e-02  1.0075217843160997e-02  9.4787763016300052e-03  8.7451619807858826e-03  7.8806721737246840e-03  6.8926785716423820e-03  5.7893988722763625e-03  4.5797816320160157e-03  3.2734776703423128e-03  1.8809232353343378e-03  4.1356900250785506e-04  -1.1160299636637687e-03  -2.6933688217675258e-03  -4.3022437732964901e-03  -5.9247774161686117e-03  -7.5404635042976504e-03  -9.1265026577160187e-03  -1.0657659457293871e-02  -1.2106583177522499e-02  -1.3444226031220063e-02  -1.4640588381836387e-02  -1.5665694846400308e-02  -1.6490831008914564e-02  -1.7089967920198304e-02  -1.7441278307376112e-02  -1.7528707805089576e-02  -1.7343425483303986e-02  -1.6884003905445321e-02  -1.6158406125548436e-02  -1.5183839453331760e-02  -1.3985159793254189e-02  -1.2594190500287934e-02  -1.1048745269272974e-02  -9.3902333129123969e-03  -7.6616551133771435e-03  -5.9056719008404642e-03  -4.1628615402357818e-03  -2.4704646812411237e-03  -8.6135497882248752e-04  6.3558806119398334e-04  1.9964290254354685e-03  3.2014116374259978e-03  4.2346723776297947e-03  5.0848159931562850e-03  5.7439562571589189e-03  6.2090890767374715e-03  6.4830057660347669e-03  6.5744581329320014e-03  6.4987532518049427e-03  6.2772591546581148e-03  5.9362398638362988e-03  5.5050139380528043e-03  5.0136803571102012e-03  4.4908599445867151e-03  3.9618156366371072e-03  3.4471601159488528e-03  2.9622981719746601e-03  2.5175103912329386e-03  2.1185102746016813e-03  1.7672720837503227e-03  1.4629274975984153e-03  1.2025782237136359e-03  9.8194002241623439e-04  7.9580772849425650e-04  6.3835699868940751e-04  5.0338419034667576e-04  3.8460829759226137e-04  2.7618695717690614e-04  1.7367277564153948e-04  7.5663073088678065e-05  -1.3522834596967632e-05  -7.9542589514971390e-05  -9.4136233870513052e-05  -1.1431009147361162e-05  2.5565971890292593e-05  -2.0668716037294382e-04  -6.1419956291069251e-04  -1.0644856837814520e-03  -1.4846462783156854e-03  -1.8265935079390329e-03  -2.0620504474491729e-03  -2.1777606090931179e-03  -2.1740567957138088e-03  -2.0629693978442406e-03  -1.8656779135717339e-03  -1.6092351048770971e-03  -1.3230237982213588e-03  -1.0354181966653281e-03  -7.7103389525611183e-04  -5.4876834842549325e-04  -3.8065892075224412e-04  -2.7146132191830638e-04  -2.1880395021621552e-04  -2.1380354181333382e-04  -2.4209522402331263e-04  -2.8529388726730346e-04  -3.2288572459668324e-04  -3.3443994209500337e-04  -3.0183518512647163e-04  -2.1102963006165202e-04  -5.2880909769036786e-05  1.7729007574349728e-04  4.8131673432692508e-04  8.6044673932129489e-04  1.3174083065713206e-03  1.8575449690565252e-03  2.4886940750961837e-03  3.2199550714898449e-03  4.0598406338325909e-03  5.0144591377277977e-03  6.0861163245871912e-03  7.2723699199108418e-03  8.5652733785443486e-03  9.9508089884900262e-03  1.1408529478847547e-02  1.2911569939532682e-02  1.4427189732125298e-02  1.5917761849382362e-02  1.7342401463858008e-02  1.8659007218593350e-02  1.9826475466444178e-02  2.0806920671407908e-02  2.1567687367508252e-02  2.2082774504707071e-02  2.2333725691929301e-02  2.2309848482919219e-02  2.2007858360886631e-02  2.1431054622909670e-02  2.0588194625111380e-02  1.9492227154477904e-02  1.8159031555827501e-02  1.6606275417249704e-02  1.4852467238166196e-02  1.2916245303752859e-02  1.0815916544012021e-02  8.5692341513395210e-03  6.1933934434505343e-03  3.7052204315038278e-03  1.1214885439219324e-03  -1.5404006570752060e-03  -4.2618655323527158e-03  -7.0235953034440482e-03  -9.8037287802854069e-03  -1.2577327492767632e-02  -1.5316375874990400e-02  -1.7989164768660252e-02  -2.0560316104396407e-02  -2.2990889580335173e-02  -2.5238950164418975e-02  -2.7260471038410748e-02  -2.9010693075860128e-02  -3.0445869961723937e-02  -3.1525360133162005e-02  -3.2213944023169294e-02  -3.2484127693399562e-02  -3.2318323464453499e-02  -3.1711137971968617e-02  -3.0669385941890243e-02  -2.9212768671805348e-02  -2.7374085844597815e-02  -2.5197192258763833e-02  -2.2734458799460330e-02  -2.0044368385035170e-02  -1.7188600624355590e-02  -1.4229215128542076e-02  -1.1226331713386179e-02  -8.2363842704194223e-03  -5.3113778624740522e-03  -2.4980115458020855e-03  1.6078592576333704e-04  2.6255874365800134e-03  4.8601368821513989e-03  6.8303585954589390e-03  8.5062291205309937e-03  9.8621265523030546e-03  1.0879078787213057e-02  1.1548500529050003e-02  1.1874368417351762e-02  1.1875142517623448e-02  1.1583803357554299e-02  1.1045862893135772e-02  1.0315596758487986e-02  9.4511043884076516e-03  8.5091533288556443e-03  7.5407904152750976e-03  6.5882887067169708e-03  5.6836862975042854e-03  4.8487696175183162e-03  4.0960954923446079e-03  3.4305876954906552e-03  2.8512763069854954e-03  2.3528819977944645e-03  1.9270795185451506e-03  1.5634739694351336e-03  1.2503897973029810e-03  9.7569961722359440e-04  7.2799475212994679e-04  4.9840316550228160e-04  2.8353918109449657e-04  8.9607095212583204e-05  -6.1007095657464216e-05  -1.2524765735844677e-04  -2.0866716425662084e-05  2.5229119649366202e-05  -4.7219998012104685e-04  -1.1489206193389513e-03  -1.8622867899224503e-03  -2.5163424668891553e-03  -3.0423218601590744e-03  -3.3976137456127428e-03  -3.5626165321433934e-03  -3.5389713765877455e-03  -3.3465133784110414e-03  -3.0189865057630061e-03  -2.5988059888426866e-03  -2.1315730287898424e-03  -1.6610226979794217e-03  -1.2248981225217845e-03  -8.5198861632625612e-04  -5.6034120206099002e-04  -3.5651077033540136e-04  -2.3567839315937741e-04  -1.8251823893902780e-04  -1.7279686892995074e-04  -1.7574018101994293e-04  -1.5714905362390651e-04  -8.3020371404110782e-05  7.6870817452092617e-05  3.4622967304368831e-04  7.4114061413719189e-04  1.2709909871294776e-03  1.9410878948248878e-03  2.7559932412523237e-03  3.7222830553260916e-03  4.8495670233127857e-03  6.1493688110055697e-03  7.6324210786383661e-03  9.3054104655695222e-03  1.1167960212812940e-02  1.3210387863405894e-02  1.5412266499504505e-02  1.7741759968559659e-02  2.0155596198984511e-02  2.2599939602194762e-02  2.5012345555433128e-02  2.7324722232006500e-02  2.9467221357125099e-02  3.1372469882288381e-02  3.2979728756283369e-02  3.4238439106791925e-02  3.5110709449539174e-02  3.5572496497867319e-02  3.5613554683131501e-02  3.5236244105464977e-02  3.4453556179684229e-02  3.3286682349237595e-02  3.1762469894663817e-02  2.9911027449595444e-02  2.7763664159646411e-02  2.5351261209847171e-02  2.2703107845597547e-02  1.9846181575191742e-02  1.6804822615313325e-02  1.3600742383158051e-02  1.0253304040597894e-02  6.7800133761561736e-03  3.1971703128750835e-03  -4.7925243154135663e-04  -4.2330517944897568e-03  -8.0471247639727905e-03  -1.1901017069016499e-02  -1.5771359008314036e-02  -1.9630777284443356e-02  -2.3446875948143722e-02  -2.7181830873494219e-02  -3.0792001080545202e-02  -3.4228040601076176e-02  -3.7435395965143968e-02  -4.0355400857207332e-02  -4.2926953950734176e-02  -4.5088834399592430e-02  -4.6782572120423992e-02  -4.7955739732898663e-02  -4.8565464481146139e-02  -4.8581766258840517e-02  -4.7990109922967143e-02  -4.6793998688753870e-02  -4.5015468322062269e-02  -4.2694088352998656e-02  -3.9885298246873140e-02  -3.6657195920298369e-02  -3.3086321033463775e-02  -2.9253180204627062e-02  -2.5238023281577822e-02  -2.1117253883986515e-02  -1.6961051065191936e-02  -1.2832136187162054e-02  -8.7865320339591130e-03  -4.8741170796524321e-03  -1.1412647614903084e-03  2.3661867580957855e-03  5.6013731259486063e-03  8.5148189440865420e-03  1.1056469422941664e-02  1.3178557553320315e-02  1.4839434878218660e-02  1.6010544075110412e-02  1.6682149904861828e-02  1.6867799418837870e-02  1.6605797891344250e-02  1.5956911365121378e-02  1.4998639161670361e-02  1.3817221826999028e-02  1.2499002136967769e-02  1.1122880670930320e-02  9.7549894704187651e-03  8.4459976695520165e-03  7.2308172979147723e-03  6.1300250686566497e-03  5.1522180092483487e-03  4.2966101904988408e-03  3.5554315140514403e-03  2.9159337213552259e-03  2.3620965635839726e-03  1.8762733134722453e-03  1.4411662985533895e-03  1.0425595439603431e-03  6.7336887460257345e-04  3.3902671985959628e-04  6.5954787259594807e-05  -9.1994997245621626e-05  -2.7540738508493166e-05  2.2891423687973484e-05  -8.2660834535989958e-04  -1.8340918603489281e-03  -2.8499528704700847e-03  -3.7595226036683032e-03  -4.4758138453489301e-03  -4.9437506930894463e-03  -5.1395050974812210e-03  -5.0687461125286147e-03  -4.7621895606969238e-03  -4.2691281699019550e-03  -3.6497828971158858e-03  -2.9675946508744798e-03  -2.2823690399840480e-03  -1.6448376411726997e-03  -1.0928266455734739e-03  -6.4894849541194042e-04  -3.1960735538506780e-04  -9.5120200954360097e-05  4.9116344477898946e-05  1.5035809185283709e-04  2.5503762387118323e-04  4.1413476804012838e-04  6.7782868120414127e-04  1.0903762859834499e-03  1.6864535346790117e-03  2.4900022677082460e-03  3.5159331161297093e-03  4.7739496003070909e-03  6.2727047847934833e-03  8.0223223840964111e-03  1.0034127640619502e-02  1.2317560519583307e-02  1.4875366513581210e-02  1.7698713526707287e-02  2.0763478026869443e-02  2.4028079913650774e-02  2.7432999222745579e-02  3.0901995798654051e-02  3.4345164767273499e-02  3.7663736040196107e-02  4.0756269854756749e-02  4.3525600736176312e-02  4.5885490692010748e-02  4.7766150212691413e-02  4.9117843391121532e-02  4.9912257803576839e-02  5.0141722852324815e-02  4.9816711178404811e-02  4.8962188528735434e-02  4.7613500657327355e-02  4.5812326349705640e-02  4.3603106655745766e-02  4.1030169180977363e-02  3.8135623897480202e-02  3.4957989496050952e-02  3.1531451800897128e-02  2.7885625311631832e-02  2.4045694587450095e-02  2.0032827121616355e-02  1.5864775679573433e-02  1.1556612232075266e-02  7.1215528159193769e-03  2.5718743132265368e-03  -2.0802554922065390e-03  -6.8215743271387297e-03  -1.1636118143013359e-02  -1.6505483892927161e-02  -2.1406730339174250e-02  -2.6311395226071631e-02  -3.1184615082846159e-02  -3.5984144803326429e-02  -4.0659797576587095e-02  -4.5153180788927286e-02  -4.9398010500723864e-02  -5.3321063202025024e-02  -5.6843941464930256e-02  -5.9885703834522311e-02  -6.2366378458825616e-02  -6.4211246899023453e-02  -6.5355634759472758e-02  -6.5749859827129498e-02  -6.5363951862659628e-02  -6.4190938508755679e-02  -6.2249110283781946e-02  -5.9582325999391457e-02  -5.6257773483190776e-02  -5.2361847071359623e-02  -4.7994381406765457e-02  -4.3261896937301154e-02  -3.8270704767978746e-02  -3.3120841587300054e-02  -2.7901506519076826e-02  -2.2688698464674490e-02  -1.7544758329897544e-02  -1.2520929925954752e-02  -7.6608719128616219e-03  -3.0050444535752482e-03  1.4041497530205139e-03  5.5176914568321892e-03  9.2776042492353755e-03  1.2618068140485092e-02  1.5470369399413167e-02  1.7769358062458149e-02  1.9463628171064323e-02  2.0525381053555440e-02  2.0958170632869911e-02  2.0800400438609846e-02  2.0123227257287383e-02  1.9023121024446296e-02  1.7610896884661335e-02  1.5999613126515995e-02  1.4293835570230300e-02  1.2581979283194768e-02  1.0932312890047990e-02  9.3922890241184952e-03  7.9902343812176431e-03  6.7383233702743885e-03  5.6359310390645279e-03  4.6728141769293713e-03  3.8319490132193816e-03  3.0922037722076329e-03  2.4312409229844444e-03  1.8291339029867864e-03  1.2733748634069142e-03  7.6533339901847634e-04  3.3025782943200374e-04  2.5331901833994457e-05  -3.0726571376346170e-05  1.9831430716604835e-05  -1.2596395822589868e-03  -2.6586740315909449e-03  -4.0161711498220131e-03  -5.1992473218884991e-03  -6.1043027391672255e-03  -6.6664398054429291e-03  -6.8612552150921005e-03  -6.7029008020600108e-03  -6.2376477896062266e-03  -5.5345086220574746e-03  -4.6745717705372917e-03  -3.7407320804221786e-03  -2.8089892070345523e-03  -1.9418710715560529e-03  -1.1840062863456165e-03  -5.5956727372532655e-04  -7.1235075610549009e-05  2.9951414977402464e-04  5.9078870165724096e-04  8.5710377562535638e-04  1.1644344004431799e-03  1.5836458812185357e-03  2.1830970361894414e-03  3.0218671208216120e-03  4.1453863340508244e-03  5.5847633912137970e-03  7.3596513112031952e-03  9.4829444082798510e-03  1.1964757708258689e-02  1.4813285744754285e-02  1.8031707179166721e-02  2.1612302576770586e-02  2.5529921321384468e-02  2.9736834014341715e-02  3.4160301338694452e-02  3.8703318313838136e-02  4.3248474472823754e-02  4.7664693404487750e-02  5.1816236178860851e-02  5