<?xml version="1.0"?>
<VTKFile type="UnstructuredGrid"  version="0.1"  >
<UnstructuredGrid>
<Piece  NumberOfPoints="1089" NumberOfCells="1024">
<Points>
<DataArray  type="Float64"  NumberOfComponents="3"  format="ascii">0 0 0  0.03125 0 0  0.0625 0 0  0.09375 0 0  0.125 0 0  0.15625 0 0  0.1875 0 0  0.21875 0 0  0.25 0 0  0.28125 0 0  0.3125 0 0  0.34375 0 0  0.375 0 0  0.40625 0 0  0.4375 0 0  0.46875 0 0  0.5 0 0  0.53125 0 0  0.5625 0 0  0.59375 0 0  0.625 0 0  0.65625 0 0  0.6875 0 0  0.71875 0 0  0.75 0 0  0.78125 0 0  0.8125 0 0  0.84375 0 0  0.875 0 0  0.90625 0 0  0.9375 0 0  0.96875 0 0  1 0 0  0 0.03125 0  0.03125 0.03125 0  0.0625 0.03125 0  0.09375 0.03125 0  0.125 0.03125 0  0.15625 0.03125 0  0.1875 0.03125 0  0.21875 0.03125 0  0.25 0.03125 0  0.28125 0.03125 0  0.3125 0.03125 0  0.34375 0.03125 0  0.375 0.03125 0  0.40625 0.03125 0  0.4375 0.03125 0  0.46875 0.03125 0  0.5 0.03125 0  0.53125 0.03125 0  0.5625 0.03125 0  0.59375 0.03125 0  0.625 0.03125 0  0.65625 0.03125 0  0.6875 0.03125 0  0.71875 0.03125 0  0.75 0.03125 0  0.78125 0.03125 0  0.8125 0.03125 0  0.84375 0.03125 0  0.875 0.03125 0  0.90625 0.03125 0  0.9375 0.03125 0  0.96875 0.03125 0  1 0.03125 0  0 0.0625 0  0.03125 0.0625 0  0.0625 0.0625 0  0.09375 0.0625 0  0.125 0.0625 0  0.15625 0.0625 0  0.1875 0.0625 0  0.21875 0.0625 0  0.25 0.0625 0  0.28125 0.0625 0  0.3125 0.0625 0  0.34375 0.0625 0  0.375 0.0625 0  0.40625 0.0625 0  0.4375 0.0625 0  0.46875 0.0625 0  0.5 0.0625 0  0.53125 0.0625 0  0.5625 0.0625 0  0.59375 0.0625 0  0.625 0.0625 0  0.65625 0.0625 0  0.6875 0.0625 0  0.71875 0.0625 0  0.75 0.0625 0  0.78125 0.0625 0  0.8125 0.0625 0  0.84375 0.0625 0  0.875 0.0625 0  0.90625 0.0625 0  0.9375 0.0625 0  0.96875 0.0625 0  1 0.0625 0  0 0.09375 0  0.03125 0.09375 0  0.0625 0.09375 0  0.09375 0.09375 0  0.125 0.09375 0  0.15625 0.09375 0  0.1875 0.09375 0  0.21875 0.09375 0  0.25 0.09375 0  0.28125 0.09375 0  0.3125 0.09375 0  0.34375 0.09375 0  0.375 0.09375 0  0.40625 0.09375 0  0.4375 0.09375 0  0.46875 0.09375 0  0.5 0.09375 0  0.53125 0.09375 0  0.5625 0.09375 0  0.59375 0.09375 0  0.625 0.09375 0  0.65625 0.09375 0  0.6875 0.09375 0  0.71875 0.09375 0  0.75 0.09375 0  0.78125 0.09375 0  0.8125 0.09375 0  0.84375 0.09375 0  0.875 0.09375 0  0.90625 0.09375 0  0.9375 0.09375 0  0.96875 0.09375 0  1 0.09375 0  0 0.125 0  0.03125 0.125 0  0.0625 0.125 0  0.09375 0.125 0  0.125 0.125 0  0.15625 0.125 0  0.1875 0.125 0  0.21875 0.125 0  0.25 0.125 0  0.28125 0.125 0  0.3125 0.125 0  0.34375 0.125 0  0.375 0.125 0  0.40625 0.125 0  0.4375 0.125 0  0.46875 0.125 0  0.5 0.125 0  0.53125 0.125 0  0.5625 0.125 0  0.59375 0.125 0  0.625 0.125 0  0.65625 0.125 0  0.6875 0.125 0  0.71875 0.125 0  0.75 0.125 0  0.78125 0.125 0  0.8125 0.125 0  0.84375 0.125 0  0.875 0.125 0  0.90625 0.125 0  0.9375 0.125 0  0.96875 0.125 0  1 0.125 0  0 0.15625 0  0.03125 0.15625 0  0.0625 0.15625 0  0.09375 0.15625 0  0.125 0.15625 0  0.15625 0.15625 0  0.1875 0.15625 0  0.21875 0.15625 0  0.25 0.15625 0  0.28125 0.15625 0  0.3125 0.15625 0  0.34375 0.15625 0  0.375 0.15625 0  0.40625 0.15625 0  0.4375 0.15625 0  0.46875 0.15625 0  0.5 0.15625 0  0.53125 0.15625 0  0.5625 0.15625 0  0.59375 0.15625 0  0.625 0.15625 0  0.65625 0.15625 0  0.6875 0.15625 0  0.71875 0.15625 0  0.75 0.15625 0  0.78125 0.15625 0  0.8125 0.15625 0  0.84375 0.15625 0  0.875 0.15625 0  0.90625 0.15625 0  0.9375 0.15625 0  0.96875 0.15625 0  1 0.15625 0  0 0.1875 0  0.03125 0.1875 0  0.0625 0.1875 0  0.09375 0.1875 0  0.125 0.1875 0  0.15625 0.1875 0  0.1875 0.1875 0  0.21875 0.1875 0  0.25 0.1875 0  0.28125 0.1875 0  0.3125 0.1875 0  0.34375 0.1875 0  0.375 0.1875 0  0.40625 0.1875 0  0.4375 0.1875 0  0.46875 0.1875 0  0.5 0.1875 0  0.53125 0.1875 0  0.5625 0.1875 0  0.59375 0.1875 0  0.625 0.1875 0  0.65625 0.1875 0  0.6875 0.1875 0  0.71875 0.1875 0  0.75 0.1875 0  0.78125 0.1875 0  0.8125 0.1875 0  0.84375 0.1875 0  0.875 0.1875 0  0.90625 0.1875 0  0.9375 0.1875 0  0.96875 0.1875 0  1 0.1875 0  0 0.21875 0  0.03125 0.21875 0  0.0625 0.21875 0  0.09375 0.21875 0  0.125 0.21875 0  0.15625 0.21875 0  0.1875 0.21875 0  0.21875 0.21875 0  0.25 0.21875 0  0.28125 0.21875 0  0.3125 0.21875 0  0.34375 0.21875 0  0.375 0.21875 0  0.40625 0.21875 0  0.4375 0.21875 0  0.46875 0.21875 0  0.5 0.21875 0  0.53125 0.21875 0  0.5625 0.21875 0  0.59375 0.21875 0  0.625 0.21875 0  0.65625 0.21875 0  0.6875 0.21875 0  0.71875 0.21875 0  0.75 0.21875 0  0.78125 0.21875 0  0.8125 0.21875 0  0.84375 0.21875 0  0.875 0.21875 0  0.90625 0.21875 0  0.9375 0.21875 0  0.96875 0.21875 0  1 0.21875 0  0 0.25 0  0.03125 0.25 0  0.0625 0.25 0  0.09375 0.25 0  0.125 0.25 0  0.15625 0.25 0  0.1875 0.25 0  0.21875 0.25 0  0.25 0.25 0  0.28125 0.25 0  0.3125 0.25 0  0.34375 0.25 0  0.375 0.25 0  0.40625 0.25 0  0.4375 0.25 0  0.46875 0.25 0  0.5 0.25 0  0.53125 0.25 0  0.5625 0.25 0  0.59375 0.25 0  0.625 0.25 0  0.65625 0.25 0  0.6875 0.25 0  0.71875 0.25 0  0.75 0.25 0  0.78125 0.25 0  0.8125 0.25 0  0.84375 0.25 0  0.875 0.25 0  0.90625 0.25 0  0.9375 0.25 0  0.96875 0.25 0  1 0.25 0  0 0.28125 0  0.03125 0.28125 0  0.0625 0.28125 0  0.09375 0.28125 0  0.125 0.28125 0  0.15625 0.28125 0  0.1875 0.28125 0  0.21875 0.28125 0  0.25 0.28125 0  0.28125 0.28125 0  0.3125 0.28125 0  0.34375 0.28125 0  0.375 0.28125 0  0.40625 0.28125 0  0.4375 0.28125 0  0.46875 0.28125 0  0.5 0.28125 0  0.53125 0.28125 0  0.5625 0.28125 0  0.59375 0.28125 0  0.625 0.28125 0  0.65625 0.28125 0  0.6875 0.28125 0  0.71875 0.28125 0  0.75 0.28125 0  0.78125 0.28125 0  0.8125 0.28125 0  0.84375 0.28125 0  0.875 0.28125 0  0.90625 0.28125 0  0.9375 0.28125 0  0.96875 0.28125 0  1 0.28125 0  0 0.3125 0  0.03125 0.3125 0  0.0625 0.3125 0  0.09375 0.3125 0  0.125 0.3125 0  0.15625 0.3125 0  0.1875 0.3125 0  0.21875 0.3125 0  0.25 0.3125 0  0.28125 0.3125 0  0.3125 0.3125 0  0.34375 0.3125 0  0.375 0.3125 0  0.40625 0.3125 0  0.4375 0.3125 0  0.46875 0.3125 0  0.5 0.3125 0  0.53125 0.3125 0  0.5625 0.3125 0  0.59375 0.3125 0  0.625 0.3125 0  0.65625 0.3125 0  0.6875 0.3125 0  0.71875 0.3125 0  0.75 0.3125 0  0.78125 0.3125 0  0.8125 0.3125 0  0.84375 0.3125 0  0.875 0.3125 0  0.90625 0.3125 0  0.9375 0.3125 0  0.96875 0.3125 0  1 0.3125 0  0 0.34375 0  0.03125 0.34375 0  0.0625 0.34375 0  0.09375 0.34375 0  0.125 0.34375 0  0.15625 0.34375 0  0.1875 0.34375 0  0.21875 0.34375 0  0.25 0.34375 0  0.28125 0.34375 0  0.3125 0.34375 0  0.34375 0.34375 0  0.375 0.34375 0  0.40625 0.34375 0  0.4375 0.34375 0  0.46875 0.34375 0  0.5 0.34375 0  0.53125 0.34375 0  0.5625 0.34375 0  0.59375 0.34375 0  0.625 0.34375 0  0.65625 0.34375 0  0.6875 0.34375 0  0.71875 0.34375 0  0.75 0.34375 0  0.78125 0.34375 0  0.8125 0.34375 0  0.84375 0.34375 0  0.875 0.34375 0  0.90625 0.34375 0  0.9375 0.34375 0  0.96875 0.34375 0  1 0.34375 0  0 0.375 0  0.03125 0.375 0  0.0625 0.375 0  0.09375 0.375 0  0.125 0.375 0  0.15625 0.375 0  0.1875 0.375 0  0.21875 0.375 0  0.25 0.375 0  0.28125 0.375 0  0.3125 0.375 0  0.34375 0.375 0  0.375 0.375 0  0.40625 0.375 0  0.4375 0.375 0  0.46875 0.375 0  0.5 0.375 0  0.53125 0.375 0  0.5625 0.375 0  0.59375 0.375 0  0.625 0.375 0  0.65625 0.375 0  0.6875 0.375 0  0.71875 0.375 0  0.75 0.375 0  0.78125 0.375 0  0.8125 0.375 0  0.84375 0.375 0  0.875 0.375 0  0.90625 0.375 0  0.9375 0.375 0  0.96875 0.375 0  1 0.375 0  0 0.40625 0  0.03125 0.40625 0  0.0625 0.40625 0  0.09375 0.40625 0  0.125 0.40625 0  0.15625 0.40625 0  0.1875 0.40625 0  0.21875 0.40625 0  0.25 0.40625 0  0.28125 0.40625 0  0.3125 0.40625 0  0.34375 0.40625 0  0.375 0.40625 0  0.40625 0.40625 0  0.4375 0.40625 0  0.46875 0.40625 0  0.5 0.40625 0  0.53125 0.40625 0  0.5625 0.40625 0  0.59375 0.40625 0  0.625 0.40625 0  0.65625 0.40625 0  0.6875 0.40625 0  0.71875 0.40625 0  0.75 0.40625 0  0.78125 0.40625 0  0.8125 0.40625 0  0.84375 0.40625 0  0.875 0.40625 0  0.90625 0.40625 0  0.9375 0.40625 0  0.96875 0.40625 0  1 0.40625 0  0 0.4375 0  0.03125 0.4375 0  0.0625 0.4375 0  0.09375 0.4375 0  0.125 0.4375 0  0.15625 0.4375 0  0.1875 0.4375 0  0.21875 0.4375 0  0.25 0.4375 0  0.28125 0.4375 0  0.3125 0.4375 0  0.34375 0.4375 0  0.375 0.4375 0  0.40625 0.4375 0  0.4375 0.4375 0  0.46875 0.4375 0  0.5 0.4375 0  0.53125 0.4375 0  0.5625 0.4375 0  0.59375 0.4375 0  0.625 0.4375 0  0.65625 0.4375 0  0.6875 0.4375 0  0.71875 0.4375 0  0.75 0.4375 0  0.78125 0.4375 0  0.8125 0.4375 0  0.84375 0.4375 0  0.875 0.4375 0  0.90625 0.4375 0  0.9375 0.4375 0  0.96875 0.4375 0  1 0.4375 0  0 0.46875 0  0.03125 0.46875 0  0.0625 0.46875 0  0.09375 0.46875 0  0.125 0.46875 0  0.15625 0.46875 0  0.1875 0.46875 0  0.21875 0.46875 0  0.25 0.46875 0  0.28125 0.46875 0  0.3125 0.46875 0  0.34375 0.46875 0  0.375 0.46875 0  0.40625 0.46875 0  0.4375 0.46875 0  0.46875 0.46875 0  0.5 0.46875 0  0.53125 0.46875 0  0.5625 0.46875 0  0.59375 0.46875 0  0.625 0.46875 0  0.65625 0.46875 0  0.6875 0.46875 0  0.71875 0.46875 0  0.75 0.46875 0  0.78125 0.46875 0  0.8125 0.46875 0  0.84375 0.46875 0  0.875 0.46875 0  0.90625 0.46875 0  0.9375 0.46875 0  0.96875 0.46875 0  1 0.46875 0  0 0.5 0  0.03125 0.5 0  0.0625 0.5 0  0.09375 0.5 0  0.125 0.5 0  0.15625 0.5 0  0.1875 0.5 0  0.21875 0.5 0  0.25 0.5 0  0.28125 0.5 0  0.3125 0.5 0  0.34375 0.5 0  0.375 0.5 0  0.40625 0.5 0  0.4375 0.5 0  0.46875 0.5 0  0.5 0.5 0  0.53125 0.5 0  0.5625 0.5 0  0.59375 0.5 0  0.625 0.5 0  0.65625 0.5 0  0.6875 0.5 0  0.71875 0.5 0  0.75 0.5 0  0.78125 0.5 0  0.8125 0.5 0  0.84375 0.5 0  0.875 0.5 0  0.90625 0.5 0  0.9375 0.5 0  0.96875 0.5 0  1 0.5 0  0 0.53125 0  0.03125 0.53125 0  0.0625 0.53125 0  0.09375 0.53125 0  0.125 0.53125 0  0.15625 0.53125 0  0.1875 0.53125 0  0.21875 0.53125 0  0.25 0.53125 0  0.28125 0.53125 0  0.3125 0.53125 0  0.34375 0.53125 0  0.375 0.53125 0  0.40625 0.53125 0  0.4375 0.53125 0  0.46875 0.53125 0  0.5 0.53125 0  0.53125 0.53125 0  0.5625 0.53125 0  0.59375 0.53125 0  0.625 0.53125 0  0.65625 0.53125 0  0.6875 0.53125 0  0.71875 0.53125 0  0.75 0.53125 0  0.78125 0.531
[...]
<PointData  Scalars="u_sol"> 
<DataArray  type="Float64"  Name="u_sol"  format="ascii">-5.0678688851810010e-05  -7.3156994926120713e-05  6.6886116096683695e-04  1.5677332520994491e-03  1.2483412504551571e-03  2.3837873650472512e-03  3.6351946336610997e-03  3.0173239474229302e-03  3.4442404915925244e-03  9.3613881891563330e-03  1.9814312561431045e-02  2.4260959764036069e-02  1.8517724128447897e-02  5.3201717855280986e-03  -1.0478830716618060e-02  -2.4193242420322936e-02  -3.2025617998756500e-02  -3.1238431463303788e-02  -2.0636345972050045e-02  -1.5831589633453829e-03  2.1317748994841689e-02  4.1100312306466852e-02  5.2123354687144324e-02  5.1705139125354675e-02  4.0051319324990106e-02  2.1860201742388029e-02  6.3681005600445218e-03  -8.7375434054233697e-04  -1.9039181775386514e-03  -1.1229744176579123e-03  -7.8842049484471541e-04  -4.0640320118212608e-04  6.8787720864336231e-05  -4.2963577508185969e-04  2.2493385440573816e-03  9.0518650869776170e-03  1.4297249420301052e-02  1.7218862278580358e-02  1.4658992197361010e-02  1.3269487585285115e-02  1.4756019248990374e-02  5.0655700057866552e-03  -2.2481178419162022e-02  -7.1449167767257585e-02  -1.3333149151901563e-01  -1.9537020193808877e-01  -2.4783646181529859e-01  -2.8487138235940890e-01  -3.0388059431102388e-01  -3.0388043294207256e-01  -2.8450428203817546e-01  -2.4587078210026012e-01  -1.8946367910630901e-01  -1.2024887838258033e-01  -4.7928689313176835e-02  1.4402866281238842e-02  5.8856610107333729e-02  8.4175671210300243e-02  9.0392414546837899e-02  7.6785643684557481e-02  5.0507609927578814e-02  2.6061223733983691e-02  1.0665993998748274e-02  3.3993910482669177e-03  4.6148624381492619e-04  -1.2521321524055571e-04  -9.3130872349685893e-04  4.3598349334235996e-03  1.3093553155996460e-02  1.7624013301332554e-02  1.5339279758117804e-02  1.4405127440580387e-02  -4.1400644881612393e-04  -4.0015351968078879e-02  -1.0095171139553748e-01  -1.8345338232193370e-01  -2.6669396652572797e-01  -3.3419888407372200e-01  -3.8170154326555605e-01  -4.1232676280821856e-01  -4.3036346066491538e-01  -4.3896126686539755e-01  -4.3947813863626967e-01  -4.3176159784774942e-01  -4.1380567847544003e-01  -3.8157853646423484e-01  -3.2972825612046869e-01  -2.5602840688741452e-01  -1.6856734109253774e-01  -8.8301261268338732e-02  -3.1462934028086510e-02  6.5440378852117615e-03  3.4475664003352099e-02  4.5256878262693589e-02  3.7062850630789179e-02  2.2209527447155288e-02  9.7718981086317280e-03  2.2817101957481470e-03  -4.1604769205384127e-04  -1.3376365509991876e-03  6.5304974809269958e-03  1.4704835618066091e-02  1.2154962043991998e-02  1.7948417201605052e-03  -2.6952228858671646e-02  -7.6035919945188365e-02  -1.5496688223598698e-01  -2.5220684900336438e-01  -3.3212352982128551e-01  -3.8520279195211821e-01  -4.1503545705828704e-01  -4.3001844733807876e-01  -4.3609193576721916e-01  -4.3770234512094264e-01  -4.3721421304326608e-01  -4.3638508223630090e-01  -4.3636364313974602e-01  -4.3773859592802328e-01  -4.3914883429974533e-01  -4.3415732317823152e-01  -4.0905561701890736e-01  -3.4666258501833991e-01  -2.4537317107337250e-01  -1.3546041463204744e-01  -5.9964704754012950e-02  -2.2294162239618352e-02  3.5907477763357830e-03  1.8593950994194367e-02  1.8483758350867630e-02  1.1669139973200555e-02  4.0348024117990234e-03  -7.4501677930580330e-04  -1.4121458050587589e-03  8.0200927593173880e-03  9.3231981656689746e-03  -5.7305274217724356e-03  -3.5047303938471212e-02  -8.7825759132002940e-02  -1.8052727770431082e-01  -2.8146990394179489e-01  -3.4817295082387201e-01  -3.8166847832843920e-01  -3.9221192410978234e-01  -3.9184014753122881e-01  -3.8777524820772286e-01  -3.8433852919422551e-01  -3.8215206453286260e-01  -3.8089253671748630e-01  -3.7982816691390031e-01  -3.7890200511417027e-01  -3.7930393234309440e-01  -3.8351718107015093e-01  -3.9523711377338538e-01  -4.1376544859984238e-01  -4.2533629464591793e-01  -3.9685551205030922e-01  -3.0233889617041176e-01  -1.6740669927272053e-01  -6.5631441389798748e-02  -2.2033467203380484e-02  -1.5258163639477497e-03  8.8146479566711261e-03  7.6842140195869536e-03  2.1985832758149230e-03  -4.3348571501176041e-04  -7.2829419808170890e-04  5.8145620500739664e-03  -4.6417100518892154e-03  -3.3960177179713391e-02  -8.7479682523757471e-02  -1.8416516553495296e-01  -2.7889768870043591e-01  -3.3020660862249623e-01  -3.5075312814916099e-01  -3.5226148797093482e-01  -3.4840714123368893e-01  -3.4625241988509153e-01  -3.4754554472595450e-01  -3.5019217917675161e-01  -3.5265940322113121e-01  -3.5423726199352573e-01  -3.5491310225255396e-01  -3.5498589987391349e-01  -3.5427278665235601e-01  -3.5283206453566984e-01  -3.5111508058649221e-01  -3.5401579588053761e-01  -3.6956172066822013e-01  -3.9729830093481583e-01  -4.0089177409088500e-01  -3.2582219075575031e-01  -1.7826889069243643e-01  -5.8118164690056158e-02  -1.2542185636929994e-02  8.0149474684814489e-04  5.2250354608293480e-03  2.9394233316875980e-03  -5.7448683799289472e-04  1.2418664515752606e-03  -2.4601230404226746e-03  -2.7841897103120718e-02  -7.5103028846365535e-02  -1.6353065354314478e-01  -2.5054246989592643e-01  -2.9779542341254733e-01  -3.1828144924005053e-01  -3.1769436663995043e-01  -3.1335052669910302e-01  -3.1353309131569329e-01  -3.1655869940581483e-01  -3.1939288954746903e-01  -3.2108899684291670e-01  -3.2225145713465303e-01  -3.2308474668286996e-01  -3.2396799088945394e-01  -3.2488290920408991e-01  -3.2639617533726395e-01  -3.2870698790504776e-01  -3.3161350282054808e-01  -3.3270009360709490e-01  -3.3130143018443087e-01  -3.3579713761846092e-01  -3.6114240381389395e-01  -3.8143394626874327e-01  -3.2034670665474679e-01  -1.6424820607429977e-01  -4.0787457749961932e-02  -2.8591735274782087e-03  2.1927198087446404e-03  -4.6540873252011167e-05  7.2206173530929704e-05  2.5355274648484433e-03  -1.1976753663215153e-02  -5.2187290894061919e-02  -1.2723547234510696e-01  -2.0996431277575561e-01  -2.6381643752871559e-01  -2.8677433480125430e-01  -2.8152478040823498e-01  -2.7597672026316861e-01  -2.7923894493743223e-01  -2.8335786943658353e-01  -2.8639442564520173e-01  -2.8834236794368717e-01  -2.9068536780784993e-01  -2.9277502933819027e-01  -2.9476709732519168e-01  -2.9628722070578922e-01  -2.9755231961937068e-01  -2.9848546882048005e-01  -2.9917897745383404e-01  -3.0033403439137651e-01  -3.0309294287469585e-01  -3.0700855181535774e-01  -3.0757917876612584e-01  -3.0736570571591471e-01  -3.2802669263420353e-01  -3.5393462875729298e-01  -2.9163302361825622e-01  -1.2562797599871522e-01  -1.9012916585695760e-02  2.3358033759496711e-03  4.8268402455154654e-03  -1.3139415873097457e-03  4.0959232966796934e-03  -2.3665312943041510e-02  -8.4236217085801660e-02  -1.5927816525799585e-01  -2.2132297364957790e-01  -2.4798608446513223e-01  -2.4331328409017108e-01  -2.4293338559666708e-01  -2.5006669207398075e-01  -2.5287183361129362e-01  -2.5467749371137877e-01  -2.5649823692676110e-01  -2.5916207641259809e-01  -2.6131103627506574e-01  -2.6319979275629229e-01  -2.6481950526267317e-01  -2.6649197255586776e-01  -2.6838615146514233e-01  -2.7056063615314768e-01  -2.7325720974038648e-01  -2.7575978279495628e-01  -2.7768815010308656e-01  -2.7901659013266228e-01  -2.8164296959496499e-01  -2.8191643940741251e-01  -2.8013227629819826e-01  -3.0031931137284373e-01  -3.2427767481320546e-01  -2.4016582061203345e-01  -7.0032448258693827e-02  -1.3440780633506462e-03  -3.0841752136564421e-03  1.5370870114059258e-03  5.7538563134155096e-03  -3.6078557264703395e-02  -1.0045597113705715e-01  -1.6713465535657657e-01  -2.0508816887771747e-01  -2.1021690113711786e-01  -2.1401677321867718e-01  -2.1672055614083377e-01  -2.1575188298488163e-01  -2.1862738759943454e-01  -2.2254482084854191e-01  -2.2618324892482161e-01  -2.2879216926433740e-01  -2.3104924712293085e-01  -2.3330857812297354e-01  -2.3552648626509487e-01  -2.3761388354924548e-01  -2.3945649962313692e-01  -2.4112814030673399e-01  -2.4264173532178601e-01  -2.4457148879025772e-01  -2.4721143904269724e-01  -2.5048585763935488e-01  -2.5325725724079851e-01  -2.5596607459499043e-01  -2.5460979370018411e-01  -2.5267179836143794e-01  -2.7791845988376224e-01  -2.8782036505360376e-01  -1.6165166632872294e-01  -2.0097903695801164e-02  9.3592912706195377e-03  -1.0435918227553128e-03  5.7408752263818866e-03  -4.0274641992592015e-02  -1.0428531515055235e-01  -1.5422658238397693e-01  -1.7401674391223909e-01  -1.7886926613143148e-01  -1.7707327296010980e-01  -1.8058363548396825e-01  -1.8889995060587245e-01  -1.9304583841478448e-01  -1.9524882159476720e-01  -1.9712956460002590e-01  -1.9933487822075344e-01  -2.0187791138616523e-01  -2.0428456563509520e-01  -2.0652182574587577e-01  -2.0874272684639808e-01  -2.1111326411676198e-01  -2.1371476318282337e-01  -2.1648343832218772e-01  -2.1907327094878784e-01  -2.2107702740314197e-01  -2.2244176829087195e-01  -2.2399228888255399e-01  -2.2677025570479839e-01  -2.3004052385639759e-01  -2.2613991298518502e-01  -2.2742392324499466e-01  -2.5924364687544832e-01  -2.2915539216588490e-01  -6.3292088385026021e-02  -6.4707528584666315e-05  -5.2068822736222702e-03  6.2033962587868061e-03  -3.9075826163838680e-02  -9.3184500593616285e-02  -1.2924851377014171e-01  -1.4161251848760778e-01  -1.4239913050064815e-01  -1.5097718552584116e-01  -1.5707572655355309e-01  -1.5625696845112613e-01  -1.5859843267783336e-01  -1.6247386940326317e-01  -1.6615886068005900e-01  -1.6947209762565391e-01  -1.7214794152688578e-01  -1.7451205766411795e-01  -1.7689922682900366e-01  -1.7926623298215649e-01  -1.8153055954646555e-01  -1.8365595778579463e-01  -1.8574216967710241e-01  -1.8809156320518111e-01  -1.9107580220129178e-01  -1.9464402845662576e-01  -1.9727520761672127e-01  -1.9802252302881113e-01  -2.0032140780574137e-01  -2.0299978966934679e-01  -1.9652660478796299e-01  -2.0873900926905353e-01  -2.3282625554262018e-01  -1.2961941821618869e-01  -2.7471356945862439e-03  1.4379631347376442e-03  5.0765561352773842e-03  -3.1917739274583898e-02  -7.6347703718425253e-02  -1.0106635507096848e-01  -1.0848738121135290e-01  -1.1588772821271179e-01  -1.1768013053096910e-01  -1.2022791562126288e-01  -1.2880348790537785e-01  -1.3391836842083255e-01  -1.3619013527388651e-01  -1.3843210071334189e-01  -1.4054336451578839e-01  -1.4285284695272596e-01  -1.4549199998726114e-01  -1.4814091872340282e-01  -1.5075419285182390e-01  -1.5348357669611251e-01  -1.5639455308333536e-01  -1.5941795418283816e-01  -1.6221216318003784e-01  -1.6432586104224517e-01  -1.6592253391190825e-01  -1.6862519784889740e-01  -1.7165836352438818e-01  -1.7248932706740219e-01  -1.7498959419246374e-01  -1.7390288715378349e-01  -1.6987717023787510e-01  -1.9721106083080137e-01  -1.6539168544849708e-01  -1.2849807565743792e-02  9.9698057939334363e-03  4.6198160079502721e-03  -2.2645026207523868e-02  -5.4819682331468902e-02  -7.1998120591841921e-02  -8.0174653664774442e-02  -8.3037887389607185e-02  -9.1875263918699074e-02  -9.8771617450338120e-02  -9.8196767487635089e-02  -9.9559694434493834e-02  -1.0347561479822458e-01  -1.0712617236356507e-01  -1.1032241406462986e-01  -1.1342541776214562e-01  -1.1606776753313219e-01  -1.1850563361971772e-01  -1.2101778370909100e-01  -1.2357618302035198e-01  -1.2610254296678738e-01  -1.2867862894380253e-01  -1.3161372359149046e-01  -1.3523929711121427e-01  -1.3892582452827440e-01  -1.4136337141131938e-01  -1.4364672646019938e-01  -1.4577788825271343e-01  -1.4739627497613617e-01  -1.4961831145127788e-01  -1.4297001224281269e-01  -1.5531886007022699e-01  -1.6648637568524166e-01  -4.9864876663465715e-02  1.3688885194065180e-02  2.8863679657703668e-03  -1.1641210323177215e-02  -3.4293386761675572e-02  -4.5770233758293609e-02  -5.1129515029731155e-02  -5.9253261386025810e-02  -6.0975814997449480e-02  -6.2376011503746685e-02  -7.0465788228511392e-02  -7.5914700716658803e-02  -7.8198868632199214e-02  -8.0034714417587777e-02  -8.2214296501656056e-02  -8.4378975216353680e-02  -8.6706243405278202e-02  -8.9490863843550261e-02  -9.2423501623987575e-02  -9.5459305254910087e-02  -9.8707491341637088e-02  -1.0209270684445027e-01  -1.0521436159668741e-01  -1.0785677368762932e-01  -1.1051881983618628e-01  -1.1381839855124544e-01  -1.1716835297488541e-01  -1.1978612939446176e-01  -1.2078564332577818e-01  -1.2377310222944947e-01  -1.2127428257692716e-01  -1.2043404479074005e-01  -1.4431229449036148e-01  -7.2053955747359441e-02  1.6445280985685273e-02  1.8417615124045985e-03  -1.1845078771388301e-03  -1.2990656622024687e-02  -1.9808956395780553e-02  -2.6546534916939517e-02  -2.8443864897794414e-02  -3.6014853552356674e-02  -4.2617359784979041e-02  -4.1461739388435143e-02  -4.1924533865049483e-02  -4.5267501857960024e-02  -4.8707617326757380e-02  -5.1752048828258963e-02  -5.4542516746446029e-02  -5.7405593086179624e-02  -6.0071803631773196e-02  -6.2604690286328868e-02  -6.5355754790070289e-02  -6.8242893700664761e-02  -7.1389303335499213e-02  -7.5045599354587378e-02  -7.9233322792321412e-02  -8.3559575813535930e-02  -8.7021012777458717e-02  -8.9967730738265556e-02  -9.3631054684717899e-02  -9.6221674667845189e-02  -9.8001948407264283e-02  -9.9395881255323157e-02  -9.3806696937124595e-02  -1.1516882264194654e-01  -7.9046024633607367e-02  1.5982213823692710e-02  -2.8639701111817293e-04  9.4606018496903692e-03  6.2723071238732679e-03  3.4207527577022100e-03  2.8714792797153292e-04  -6.4165644420836479e-03  -6.7029160349056033e-03  -6.6271164876026949e-03  -1.3915826885033360e-02  -1.9040028808480949e-02  -2.0804497696967687e-02  -2.2174568832285042e-02  -2.3849006477236884e-02  -2.5803024851773427e-02  -2.7975634722342435e-02  -3.0389714182734298e-02  -3.3389101841750819e-02  -3.6795108190670188e-02  -4.0428771590236244e-02  -4.4198085282790164e-02  -4.8053737445371704e-02  -5.1574156341195457e-02  -5.5305247930138933e-02  -5.9867101092415963e-02  -6.4466214375189054e-02  -6.8098987952676882e-02  -7.1655470370268384e-02  -7.4023190754593460e-02  -7.7471038766762604e-02  -7.2008550914732364e-02  -8.5328533830304781e-02  -6.9971797034142413e-02  1.2241562141180941e-02  -1.6934003661528817e-03  1.8868320502291053e-02  2.6333435835148342e-02  2.7603651245778051e-02  2.3426189342429994e-02  2.3418400072895463e-02  1.7505463091510461e-02  1.1871969099721389e-02  1.4282934284263213e-02  1.4878826055257997e-02  1.2289755561131523e-02  9.4015936282888478e-03  6.8424065072837320e-03  4.3654508965687185e-03  1.8704805487835554e-03  -8.1330601407165982e-04  -3.6457105620260949e-03  -6.3605732714648146e-03  -9.6782409427996728e-03  -1.3364474202134637e-02  -1.7781378389423598e-02  -2.2904340703548492e-02  -2.8352568867122743e-02  -3.3090536858625244e-02  -3.7973756264843561e-02  -4.2974276370621158e-02  -4.8221259020424297e-02  -5.1112099202537099e-02  -5.5797798406622502e-02  -5.3297440395947034e-02  -6.1868373669881294e-02  -5.8614877231272233e-02  8.4267421871724868e-03  -4.0869659088086660e-03  2.7669240646395782e-02  4.4672471807234451e-02  4.9906707886376932e-02  5.0028273932977638e-02  4.4574648696416093e-02  4.6416531802667180e-02  4.7852699246352402e-02  4.1428046394273971e-02  3.7100279940172363e-02  3.6265383236349751e-02  3.5705526359784565e-02  3.4700703845313680e-02  3.3353570732633279e-02  3.1541346360579176e-02  2.9436807636154961e-02  2.6623287978274335e-02  2.3257730684091683e-02  1.9082912221279835e-02  1.4685881865964610e-02  9.9863997261727764e-03  5.3091304933091605e-03  7.0292928600699465e-05  -6.0448500229679427e-03  -1.2727671359209637e-02  -1.8385362646806191e-02  -2.4660704757950382e-02  -2.9718981713017324e-02  -3.5568571109107126e-02  -3.6220428873511269e-02  -4.1989170445391362e-02  -4.5108167173231510e-02  5.2328522560513620e-03  -5.4095047016363192e-03  3.3725924773811658e-02  6.3629414431329467e-02  7.3747196856813593e-02  7.3512564833694491e-02  7.4623957934766685e-02  6.9954610172913642e-02  6.5577465232799989e-02  6.9674128654142409e-02  7.1351723884706911e-02  6.9599773781420030e-02  6.7613485470689308e-02  6.5756686506821468e-02  6.4066635928383298e-02  6.1953134669888124e-02  5.9739363136553460e-02  5.7025452783846506e-02  5.3884761096305335e-02  5.0401240664882614e-02  4.6271176564207692e-02  4.0906247484385642e-02  3.4639008949855402e-02  2.7615106282269718e-02  2.0956026911889022e-02  1.3727265138678385e-02  6.0499568322287612e-03  -2.1114784476205578e-03  -8.8102341825571882e-03  -1.6389561317719497e-02  -2.0878319361257159e-02  -2.7785304879138283e-02  -3.5944172608084593e-02  3.2475018941977838e-03  -7.2335156299225545e-03  3.6397926030654053e-02  7.9056802747544550e-02  9.5578445429957623e-02  1.0091997147887594e-01  9.5812545984019004e-02  9.9417507235524880e-02  1.0194582634966357e-01  9.5955366691095126e-02  9.2985503423062332e-02  9.3322928585200665e-02  9.4027330683214963e-02  9.3923274173963275e-02  9.3539856626341678e-02  9.2537246772881304e-02  9.0834766817272858e-02  8.8452129914775149e-02  8.5232827698535157e-02  8.0951797785239032e-02  7.5647438499512679e-02  6.9871083658817640e-02  6.3899586931891753e-02  5.6855157155336865e-02  4.8597280343110900e-02  3.9324142674658377e-02  3.0432245441320161e-02  2.0758540744451232e-02  1.1181659253977955e-02  1.4622081788021816e-03  -6.4595760279237812e-03  -1.4918335496669134e-02  -2.6859059439011665e-02  1.6956891522682625e-03  -6.8089075656066391e-03  3.2802210773091908e-02  9.1555234765424223e-02  1.1764437454429413e-01  1.2484817987566860e-01  1.2729090901176363e-01  1.2182087866904771e-01  1.1921824623447336e-01  1.2499189666571821e-01  1.2779720745850912e-01  1.2693282269408526e-01  1.2617847623463219e-01  1.2563647162828795e-01  1.2484172644604422e-01  1.2383615911093564e-01  1.2225504758150540e-01  1.1996772593159162e-01  1.1691492688882581e-01  1.1305652011047734e-01  1.0839667517289610e-01  1.0251765537566321e-01  9.4687599227481864e-02  8.5727379495743827e-02  7.6653233749147551e-02  6.6486968740713928e-02  5.5232737028580135e-02  4.3077866065528894e-02  3.1313859532822425e-02  1.8834732773530552e-02  6.8453193556633520e-03  -5.5839603491912183e-03  -2.1723079711828304e-02  8.3341581357751981e-04  -6.6588887797720828e-03  2.3988042604963799e-02  9.4062227279158181e-02  1.3517140656747434e-01  1.5120126932679726e-01  1.4915313907203320e-01  1.5277280953422731e-01  1.5561005710488388e-01  1.4972004161497798e-01  1.4848729687123097e-01  1.5077040497620897e-01  1.5281347073579440e-01  1.5442984699885043e-01  1.5541567031752984e-01  1.5559579704281459e-01  1.5495853094975787e-01  1.5327199264572572e-01  1.5038203704885775e-01  1.4613964897106282e-01  1.4042416365501451e-01  1.3329002983672800e-01  1.2546802839588303e-01  1.1696840319737185e-01  1.0585957222871234e-01  9.3431397652797593e-02  8.0563272928068294e-02  6.6309392956303434e-02  5.1280425308360841e-02  3.5655768910349495e-02  1.9905665967267595e-02  4.0332653070191040e-03  -1.5962266137677518e-02  -1.6116095968366340e-05  -3.4548686265435335e-03  1.2814604162454352e-02  8.6819494945626782e-02  1.4703239437223789e-01  1.7140766441120536e-01  1.8144442081687467e-01  1.7394884175649594e-01  1.7208153722482525e-01  1.8027180700775211e-01  1.8353638600967484e-01  1.8431263956417904e-01  1.8535379726961981e-01  1.8661609629020209e-01  1.8767949355399707e-01  1.8820684157970749e-01  1.8779932647373229e-01  1.8640844115718130e-01  1.8383279180989523e-01  1.7999366910253378e-01  1.7481324961007239e-01  1.6815874467970446e-01  1.5954232656626560e-01  1.4815804933053334e-01  1.3575185296836920e-01  1.2290779172909705e-01  1.0687548259089791e-01  8.9854980900576892e-02  7.2155875793045429e-02  5.2838098836826615e-02  3.2547756307689323e-02  1.1205868679991265e-02  -1.3289487823085640e-02  -4.2354477639036523e-04  -2.3177212665119544e-03  6.6851977286911746e-03  6.4707552874408547e-02  1.4486697233349155e-01  1.8851103873745709e-01  1.9979692323698564e-01  2.0791646337520800e-01  2.0751248250357893e-01  2.0174408727772150e-01  2.0319462865025714e-01  2.0792994959651853e-01  2.1249104100498697e-01  2.1650494720430877e-01  2.1964971561548241e-01  2.2194341516360405e-01  2.2297003109646593e-01  2.225