<?xml version="1.0"?>
<VTKFile type="UnstructuredGrid"  version="0.1"  >
<UnstructuredGrid>
<Piece  NumberOfPoints="16641" NumberOfCells="16384">
<Points>
<DataArray  type="Float64"  NumberOfComponents="3"  format="ascii">0 0 0  0.0078125 0 0  0.015625 0 0  0.0234375 0 0  0.03125 0 0  0.0390625 0 0  0.046875 0 0  0.0546875 0 0  0.0625 0 0  0.0703125 0 0  0.078125 0 0  0.0859375 0 0  0.09375 0 0  0.1015625 0 0  0.109375 0 0  0.1171875 0 0  0.125 0 0  0.1328125 0 0  0.140625 0 0  0.1484375 0 0  0.15625 0 0  0.1640625 0 0  0.171875 0 0  0.1796875 0 0  0.1875 0 0  0.1953125 0 0  0.203125 0 0  0.2109375 0 0  0.21875 0 0  0.2265625 0 0  0.234375 0 0  0.2421875 0 0  0.25 0 0  0.2578125 0 0  0.265625 0 0  0.2734375 0 0  0.28125 0 0  0.2890625 0 0  0.296875 0 0  0.3046875 0 0  0.3125 0 0  0.3203125 0 0  0.328125 0 0  0.3359375 0 0  0.34375 0 0  0.3515625 0 0  0.359375 0 0  0.3671875 0 0  0.375 0 0  0.3828125 0 0  0.390625 0 0  0.3984375 0 0  0.40625 0 0  0.4140625 0 0  0.421875 0 0  0.4296875 0 0  0.4375 0 0  0.4453125 0 0  0.453125 0 0  0.4609375 0 0  0.46875 0 0  0.4765625 0 0  0.484375 0 0  0.4921875 0 0  0.5 0 0  0.5078125 0 0  0.515625 0 0  0.5234375 0 0  0.53125 0 0  0.5390625 0 0  0.546875 0 0  0.5546875 0 0  0.5625 0 0  0.5703125 0 0  0.578125 0 0  0.5859375 0 0  0.59375 0 0  0.6015625 0 0  0.609375 0 0  0.6171875 0 0  0.625 0 0  0.6328125 0 0  0.640625 0 0  0.6484375 0 0  0.65625 0 0  0.6640625 0 0  0.671875 0 0  0.6796875 0 0  0.6875 0 0  0.6953125 0 0  0.703125 0 0  0.7109375 0 0  0.71875 0 0  0.7265625 0 0  0.734375 0 0  0.7421875 0 0  0.75 0 0  0.7578125 0 0  0.765625 0 0  0.7734375 0 0  0.78125 0 0  0.7890625 0 0  0.796875 0 0  0.8046875 0 0  0.8125 0 0  0.8203125 0 0  0.828125 0 0  0.8359375 0 0  0.84375 0 0  0.8515625 0 0  0.859375 0 0  0.8671875 0 0  0.875 0 0  0.8828125 0 0  0.890625 0 0  0.8984375 0 0  0.90625 0 0  0.9140625 0 0  0.921875 0 0  0.9296875 0 0  0.9375 0 0  0.9453125 0 0  0.953125 0 0  0.9609375 0 0  0.96875 0 0  0.9765625 0 0  0.984375 0 0  0.9921875 0 0  1 0 0  0 0.0078125 0  0.0078125 0.0078125 0  0.015625 0.0078125 0  0.0234375 0.0078125 0  0.03125 0.0078125 0  0.0390625 0.0078125 0  0.046875 0.0078125 0  0.0546875 0.0078125 0  0.0625 0.0078125 0  0.0703125 0.0078125 0  0.078125 0.0078125 0  0.0859375 0.0078125 0  0.09375 0.0078125 0  0.1015625 0.0078125 0  0.109375 0.0078125 0  0.1171875 0.0078125 0  0.125 0.0078125 0  0.1328125 0.0078125 0  0.140625 0.0078125 0  0.1484375 0.0078125 0  0.15625 0.0078125 0  0.1640625 0.0078125 0  0.171875 0.0078125 0  0.1796875 0.0078125 0  0.1875 0.0078125 0  0.1953125 0.0078125 0  0.203125 0.0078125 0  0.2109375 0.0078125 0  0.21875 0.0078125 0  0.2265625 0.0078125 0  0.234375 0.0078125 0  0.2421875 0.0078125 0  0.25 0.0078125 0  0.2578125 0.0078125 0  0.265625 0.0078125 0  0.2734375 0.0078125 0  0.28125 0.0078125 0  0.2890625 0.0078125 0  0.296875 0.0078125 0  0.3046875 0.0078125 0  0.3125 0.0078125 0  0.3203125 0.0078125 0  0.328125 0.0078125 0  0.3359375 0.0078125 0  0.34375 0.0078125 0  0.3515625 0.0078125 0  0.359375 0.0078125 0  0.3671875 0.0078125 0  0.375 0.0078125 0  0.3828125 0.0078125 0  0.390625 0.0078125 0  0.3984375 0.0078125 0  0.40625 0.0078125 0  0.4140625 0.0078125 0  0.421875 0.0078125 0  0.4296875 0.0078125 0  0.4375 0.0078125 0  0.4453125 0.0078125 0  0.453125 0.0078125 0  0.4609375 0.0078125 0  0.46875 0.0078125 0  0.4765625 0.0078125 0  0.484375 0.0078125 0  0.4921875 0.0078125 0  0.5 0.0078125 0  0.5078125 0.0078125 0  0.515625 0.0078125 0  0.5234375 0.0078125 0  0.53125 0.0078125 0  0.5390625 0.0078125 0  0.546875 0.0078125 0  0.5546875 0.0078125 0  0.5625 0.0078125 0  0.5703125 0.0078125 0  0.578125 0.0078125 0  0.5859375 0.0078125 0  0.59375 0.0078125 0  0.6015625 0.0078125 0  0.609375 0.0078125 0  0.6171875 0.0078125 0  0.625 0.0078125 0  0.6328125 0.0078125 0  0.640625 0.0078125 0  0.6484375 0.0078125 0  0.65625 0.0078125 0  0.6640625 0.0078125 0  0.671875 0.0078125 0  0.6796875 0.0078125 0  0.6875 0.0078125 0  0.6953125 0.0078125 0  0.703125 0.0078125 0  0.7109375 0.0078125 0  0.71875 0.0078125 0  0.7265625 0.0078125 0  0.734375 0.0078125 0  0.7421875 0.0078125 0  0.75 0.0078125 0  0.7578125 0.0078125 0  0.765625 0.0078125 0  0.7734375 0.0078125 0  0.78125 0.0078125 0  0.7890625 0.0078125 0  0.796875 0.0078125 0  0.8046875 0.0078125 0  0.8125 0.0078125 0  0.8203125 0.0078125 0  0.828125 0.0078125 0  0.8359375 0.0078125 0  0.84375 0.0078125 0  0.8515625 0.0078125 0  0.859375 0.0078125 0  0.8671875 0.0078125 0  0.875 0.0078125 0  0.8828125 0.0078125 0  0.890625 0.0078125 0  0.8984375 0.0078125 0  0.90625 0.0078125 0  0.9140625 0.0078125 0  0.921875 0.0078125 0  0.9296875 0.0078125 0  0.9375 0.0078125 0  0.9453125 0.0078125 0  0.953125 0.0078125 0  0.9609375 0.0078125 0  0.96875 0.0078125 0  0.9765625 0.0078125 0  0.984375 0.0078125 0  0.9921875 0.0078125 0  1 0.0078125 0  0 0.015625 0  0.0078125 0.015625 0  0.015625 0.015625 0  0.0234375 0.015625 0  0.03125 0.015625 0  0.0390625 0.015625 0  0.046875 0.015625 0  0.0546875 0.015625 0  0.0625 0.015625 0  0.0703125 0.015625 0  0.078125 0.015625 0  0.0859375 0.015625 0  0.09375 0.015625 0  0.1015625 0.015625 0  0.109375 0.015625 0  0.1171875 0.015625 0  0.125 0.015625 0  0.1328125 0.015625 0  0.140625 0.015625 0  0.1484375 0.015625 0  0.15625 0.015625 0  0.1640625 0.015625 0  0.171875 0.015625 0  0.1796875 0.015625 0  0.1875 0.015625 0  0.1953125 0.015625 0  0.203125 0.015625 0  0.2109375 0.015625 0  0.21875 0.015625 0  0.2265625 0.015625 0  0.234375 0.015625 0  0.2421875 0.015625 0  0.25 0.015625 0  0.2578125 0.015625 0  0.265625 0.015625 0  0.2734375 0.015625 0  0.28125 0.015625 0  0.2890625 0.015625 0  0.296875 0.015625 0  0.3046875 0.015625 0  0.3125 0.015625 0  0.3203125 0.015625 0  0.328125 0.015625 0  0.3359375 0.015625 0  0.34375 0.015625 0  0.3515625 0.015625 0  0.359375 0.015625 0  0.3671875 0.015625 0  0.375 0.015625 0  0.3828125 0.015625 0  0.390625 0.015625 0  0.3984375 0.015625 0  0.40625 0.015625 0  0.4140625 0.015625 0  0.421875 0.015625 0  0.4296875 0.015625 0  0.4375 0.015625 0  0.4453125 0.015625 0  0.453125 0.015625 0  0.4609375 0.015625 0  0.46875 0.015625 0  0.4765625 0.015625 0  0.484375 0.015625 0  0.4921875 0.015625 0  0.5 0.015625 0  0.5078125 0.015625 0  0.515625 0.015625 0  0.5234375 0.015625 0  0.53125 0.015625 0  0.5390625 0.015625 0  0.546875 0.015625 0  0.5546875 0.015625 0  0.5625 0.015625 0  0.5703125 0.015625 0  0.578125 0.015625 0  0.5859375 0.015625 0  0.59375 0.015625 0  0.6015625 0.015625 0  0.609375 0.015625 0  0.6171875 0.015625 0  0.625 0.015625 0  0.6328125 0.015625 0  0.640625 0.015625 0  0.6484375 0.015625 0  0.65625 0.015625 0  0.6640625 0.015625 0  0.671875 0.015625 0  0.6796875 0.015625 0  0.6875 0.015625 0  0.6953125 0.015625 0  0.703125 0.015625 0  0.7109375 0.015625 0  0.71875 0.015625 0  0.7265625 0.015625 0  0.734375 0.015625 0  0.7421875 0.015625 0  0.75 0.015625 0  0.7578125 0.015625 0  0.765625 0.015625 0  0.7734375 0.015625 0  0.78125 0.015625 0  0.7890625 0.015625 0  0.796875 0.015625 0  0.8046875 0.015625 0  0.8125 0.015625 0  0.8203125 0.015625 0  0.828125 0.015625 0  0.8359375 0.015625 0  0.84375 0.015625 0  0.8515625 0.015625 0  0.859375 0.015625 0  0.8671875 0.015625 0  0.875 0.015625 0  0.8828125 0.015625 0  0.890625 0.015625 0  0.8984375 0.015625 0  0.90625 0.015625 0  0.9140625 0.015625 0  0.921875 0.015625 0  0.9296875 0.015625 0  0.9375 0.015625 0  0.9453125 0.015625 0  0.953125 0.015625 0  0.9609375 0.015625 0  0.96875 0.015625 0  0.9765625 0.015625 0  0.984375 0.015625 0  0.9921875 0.015625 0  1 0.015625 0  0 0.0234375 0  0.0078125 0.0234375 0  0.015625 0.0234375 0  0.0234375 0.0234375 0  0.03125 0.0234375 0  0.0390625 0.0234375 0  0.046875 0.0234375 0  0.0546875 0.0234375 0  0.0625 0.0234375 0  0.0703125 0.0234375 0  0.078125 0.0234375 0  0.0859375 0.0234375 0  0.09375 0.0234375 0  0.1015625 0.0234375 0  0.109375 0.0234375 0  0.1171875 0.0234375 0  0.125 0.0234375 0  0.1328125 0.0234375 0  0.140625 0.0234375 0  0.1484375 0.0234375 0  0.15625 0.0234375 0  0.1640625 0.0234375 0  0.171875 0.0234375 0  0.1796875 0.0234375 0  0.1875 0.0234375 0  0.1953125 0.0234375 0  0.203125 0.0234375 0  0.2109375 0.0234375 0  0.21875 0.0234375 0  0.2265625 0.0234375 0  0.234375 0.0234375 0  0.2421875 0.0234375 0  0.25 0.0234375 0  0.2578125 0.0234375 0  0.265625 0.0234375 0  0.2734375 0.0234375 0  0.28125 0.0234375 0  0.2890625 0.0234375 0  0.296875 0.0234375 0  0.3046875 0.0234375 0  0.3125 0.0234375 0  0.3203125 0.0234375 0  0.328125 0.0234375 0  0.3359375 0.0234375 0  0.34375 0.0234375 0  0.3515625 0.0234375 0  0.359375 0.0234375 0  0.3671875 0.0234375 0  0.375 0.0234375 0  0.3828125 0.0234375 0  0.390625 0.0234375 0  0.3984375 0.0234375 0  0.40625 0.0234375 0  0.4140625 0.0234375 0  0.421875 0.0234375 0  0.4296875 0.0234375 0  0.4375 0.0234375 0  0.4453125 0.0234375 0  0.453125 0.0234375 0  0.4609375 0.0234375 0  0.46875 0.0234375 0  0.4765625 0.0234375 0  0.484375 0.0234375 0  0.4921875 0.0234375 0  0.5 0.0234375 0  0.5078125 0.0234375 0  0.515625 0.0234375 0  0.5234375 0.0234375 0  0.53125 0.0234375 0  0.5390625 0.0234375 0  0.546875 0.0234375 0  0.5546875 0.0234375 0  0.5625 0.0234375 0  0.5703125 0.0234375 0  0.578125 0.0234375 0  0.5859375 0.0234375 0  0.59375 0.0234375 0  0.6015625 0.0234375 0  0.609375 0.0234375 0  0.6171875 0.0234375 0  0.625 0.0234375 0  0.6328125 0.0234375 0  0.640625 0.0234375 0  0.6484375 0.0234375 0  0.65625 0.0234375 0  0.6640625 0.0234375 0  0.671875 0.0234375 0  0.6796875 0.0234375 0  0.6875 0.0234375 0  0.6953125 0.0234375 0  0.703125 0.0234375 0  0.7109375 0.0234375 0  0.71875 0.0234375 0  0.7265625 0.0234375 0  0.734375 0.0234375 0  0.7421875 0.0234375 0  0.75 0.0234375 0  0.7578125 0.0234375 0  0.765625 0.0234375 0  0.7734375 0.0234375 0  0.78125 0.0234375 0  0.7890625 0.0234375 0  0.796875 0.0234375 0  0.8046875 0.0234375 0  0.8125 0.0234375 0  0.8203125 0.0234375 0  0.828125 0.0234375 0  0.8359375 0.0234375 0  0.84375 0.0234375 0  0.8515625 0.0234375 0  0.859375 0.0234375 0  0.8671
[...]
<PointData  Scalars="u_sol"> 
<DataArray  type="Float64"  Name="u_sol"  format="ascii">1.2776400062965248e-06  -5.5075604376770588e-06  -1.6451625108882360e-05  -2.2073609383347616e-05  -2.2189870629445250e-05  -1.7113965014162103e-05  -7.5663381348511033e-06  5.4612941491176761e-06  2.0679540702073863e-05  3.6650375036411719e-05  5.1985762966185047e-05  6.5549528553499449e-05  7.6601063547375689e-05  8.4854657678930736e-05  9.0455190740950080e-05  9.3894089536966958e-05  9.5898817127253064e-05  9.7323707713290318e-05  9.9060881045932178e-05  1.0197642428264832e-04  1.0686652649326083e-04  1.1442483975080729e-04  1.2521304180929883e-04  1.3963539167849724e-04  1.5792989100784505e-04  1.8018099486987501e-04  2.0638930088222288e-04  2.3658293255025275e-04  2.7090899631171004e-04  3.0976335016824678e-04  3.5398003393643954e-04  4.0446905668701334e-04  4.6233917881189317e-04  5.2919371443388614e-04  6.0657872130550424e-04  6.9503782367590821e-04  7.9565621761398158e-04  9.0957298703598732e-04  1.0384320389428864e-03  1.1800775579838742e-03  1.3329553397666051e-03  1.4991875926633588e-03  1.6764825981257195e-03  1.8630933749672004e-03  2.0559718108868431e-03  2.2395981720033280e-03  2.4035383939557346e-03  2.5432766946592265e-03  2.6474052598049209e-03  2.7053675676350034e-03  2.7069229346800426e-03  2.6431243915558170e-03  2.5068719429044359e-03  2.2933791118232038e-03  2.0004702968916500e-03  1.6287317839586018e-03  1.1815294339182682e-03  6.6492357012535458e-04  8.7510469904479403e-05  -5.3978003243392470e-04  -1.2039174171889514e-03  -1.8900009783273770e-03  -2.5816849620679426e-03  -3.2615045157417251e-03  -3.9106067753167098e-03  -4.4967023612459420e-03  -5.0227821865128112e-03  -5.4815540644596915e-03  -5.8247736335200724e-03  -6.0280901253768129e-03  -6.0708898271061833e-03  -5.9338768890626501e-03  -5.6039629292856438e-03  -5.0743475351487750e-03  -4.3471755092672811e-03  -3.4345281752489656e-03  -2.3600041841665108e-03  -1.1566875263852477e-03  1.2669028600031243e-04  1.4555652767578630e-03  2.7188715847335184e-03  3.8958521969004309e-03  4.9966897676539061e-03  5.8913144669371685e-03  6.5567136085366972e-03  7.0017955382392525e-03  7.2130210461015462e-03  7.2080845321674785e-03  7.0089917579201563e-03  6.6517816280775846e-03  6.1637029186823030e-03  5.6020502910088515e-03  5.0185552364467719e-03  4.3873750756318469e-03  3.7336822183380268e-03  3.1011569826213691e-03  2.4910455305532449e-03  1.9201802037186351e-03  1.4028435857252664e-03  9.4803571996790838e-04  5.6320055084037692e-04  2.5220560368090082e-04  1.4661672660912571e-05  -1.5415052177638605e-04  -2.6267342173026144e-04  -3.2188863116490522e-04  -3.4368634980909077e-04  -3.3904435065069174e-04  -3.1782692535606424e-04  -2.8794438389490007e-04  -2.5471938947285586e-04  -2.2157361023646542e-04  -1.9047663439011092e-04  -1.6259352878982475e-04  -1.3835050169893842e-04  -1.1772302364794035e-04  -1.0044771713664080e-04  -8.6083628202480780e-05  -7.4078088286156819e-05  -6.3817275539705407e-05  -5.4663241090546081e-05  -4.6006492770192936e-05  -3.7315997123026032e-05  -2.8222324401784954e-05  -1.8561862485483414e-05  -8.7436175018630523e-06  3.8345018795002162e-07  4.3381406332089744e-06  4.9729758473537189e-07  2.0187104482734070e-06  -1.7675436453326011e-05  -1.2521364139085073e-05  7.4209071975856692e-05  2.6320119512792073e-04  5.5649707716812972e-04  9.4285392984876429e-04  1.4019382326119431e-03  1.9074182979388016e-03  2.4304031628635675e-03  2.9429025124687231e-03  3.4209236492892259e-03  3.8467737545898554e-03  4.2103185194941016e-03  4.5091645996664246e-03  4.7479212453076011e-03  4.9368054093577992e-03  5.0898861833330112e-03  5.2232206071651755e-03  5.3530573922044404e-03  5.4942081980159313e-03  5.6586324667672562e-03  5.8542817212677923e-03  6.0842830218992405e-03  6.3465868835875083e-03  6.6342027048152266e-03  6.9359964756126541e-03  7.2380393372857340e-03  7.5250907070613712e-03  7.7814676631665506e-03  7.9916491454509204e-03  8.1403015509853051e-03  8.2092087677456942e-03  8.1757494964643344e-03  8.0137830395738095e-03  7.6912565394595981e-03  7.1658085948612836e-03  6.3926795501631824e-03  5.3277648381374349e-03  3.9281910857079504e-03  2.1321962776343611e-03  -1.3744540676305825e-04  -2.9377409991984391e-03  -6.3143836830601777e-03  -1.0303055846036833e-02  -1.4917294011021003e-02  -2.0166176677709261e-02  -2.6047211331517588e-02  -3.2529224371268588e-02  -3.9559567621280593e-02  -4.7064623979566428e-02  -5.4952231593931061e-02  -6.3114810002793204e-02  -7.1433185524042667e-02  -7.9780611575934024e-02  -8.8026619450929919e-02  -9.6040395199696704e-02  -1.0369351191302235e-01  -1.1086196550243976e-01  -1.1742757040769179e-01  -1.2327884022254212e-01  -1.2831157418797326e-01  -1.3242918155198333e-01  -1.3554321169929162e-01  -1.3757340322628953e-01  -1.3845736848042051e-01  -1.3810339068104246e-01  -1.3644197286590937e-01  -1.3345965863155582e-01  -1.2913710503578407e-01  -1.2347232685749610e-01  -1.1648581562667672e-01  -1.0822035289579827e-01  -9.8745490921840914e-02  -8.8158862454895473e-02  -7.6588174592358144e-02  -6.4190978154915965e-02  -5.1155029560439477e-02  -3.7689559989346012e-02  -2.4040219847875185e-02  -1.0413603378118015e-02  2.8792210279584935e-03  1.5526973779897551e-02  2.7388408995194329e-02  3.8247405501829465e-02  4.7892710620037658e-02  5.6192606300814393e-02  6.3048176428019770e-02  6.8415127349677252e-02  7.2288727508174278e-02  7.4716949700322430e-02  7.5748011638215637e-02  7.5458519615223665e-02  7.4048411993271696e-02  7.1660243570337442e-02  6.8375011817657178e-02  6.4328508653811844e-02  5.9652429146834343e-02  5.4480301162739192e-02  4.8959152188631422e-02  4.3246618853837647e-02  3.7508317793761313e-02  3.1910103892445932e-02  2.6606278178350286e-02  2.1726357870798432e-02  1.7364187501539351e-02  1.3572041068355391e-02  1.0360935978780792e-02  7.7079552090505224e-03  5.5655266934231612e-03  3.8709967800808001e-03  2.5555482283930509e-03  1.5512326191325621e-03  7.9666316480583898e-04  2.3902371429917546e-04  -1.6539765538878362e-04  -4.5109910057292005e-04  -6.4404641072985855e-04  -7.6285377760059434e-04  -8.2021490278746565e-04  -8.2456404790049527e-04  -7.8183185670165577e-04  -6.9727969803821846e-04  -5.7739592647032285e-04  -4.3188114135115366e-04  -2.7578282119905382e-04  -1.3154212440143260e-04  -2.9734782267895131e-05  6.0984905634650871e-06  -2.0321503020131126e-06  5.2676562565915408e-06  8.6427378555945506e-05  3.0238254012172742e-04  6.7960683196181294e-04  1.2201406247037405e-03  1.9055445030967174e-03  2.7029061201380945e-03  3.5701679186662325e-03  4.4617057729650737e-03  5.3336251626526464e-03  6.1483066321154165e-03  6.8777165471625374e-03  7.5052379332699870e-03  8.0259840960630793e-03  8.4457943405823344e-03  8.7792452479587748e-03  9.0470089389157928e-03  9.2729345631421354e-03  9.4811272397609201e-03  9.6931758614053481e-03  9.9256822965195970e-03  1.0188239346307753e-02  1.0481989358299202e-02  1.0798921732899786e-02  1.1122150845960421e-02  1.1427150472104446e-02  1.1683279385906312e-02  1.1856009076169339e-02  1.1908602549212817e-02  1.1800913534667893e-02  1.1487729697593678e-02  1.0918441915055624e-02  1.0031929422304025e-02  8.7589261405690011e-03  7.0282608419062025e-03  4.7600628997575035e-03  1.8413750824450516e-03  -1.8507046347632137e-03  -6.4243761384125530e-03  -1.1952942048985287e-02  -1.8483906413245675e-02  -2.6073311443293504e-02  -3.4745929183880829e-02  -4.4482550125458577e-02  -5.5228477583365937e-02  -6.6877602153432025e-02  -7.9280459019381314e-02  -9.2259785259051069e-02  -1.0561447791460658e-01  -1.1913052781558978e-01  -1.3259085943799315e-01  -1.4578419953107399e-01  -1.5851192652653542e-01  -1.7059281240328417e-01  -1.8186571914409425e-01  -1.9219056556788194e-01  -2.0144795290423784e-01  -2.0953785775862838e-01  -2.1637775278335192e-01  -2.2190045862140484e-01  -2.2605188311692304e-01  -2.2878894357124976e-01  -2.3007737709209561e-01  -2.2989186099924538e-01  -2.2820752714969406e-01  -2.2504418617916028e-01  -2.2042819038082759e-01  -2.1435809413159884e-01  -2.0685407836162484e-01  -1.9794540173600475e-01  -1.8767238088139665e-01  -1.7609082207086074e-01  -1.6327328828039320e-01  -1.4931253058768065e-01  -1.3432335586627406e-01  -1.1844471050804706e-01  -1.0183970561533587e-01  -8.4698159396359329e-02  -6.7226505916526041e-02  -4.9676731060191277e-02  -3.2244270288274139e-02  -1.5142170176672220e-02  1.3234037969262627e-03  1.6933545997891493e-02  3.1504754080965765e-02  4.4852900733633530e-02  5.6834912552415004e-02  6.7338229151621701e-02  7.6289391812947957e-02  8.3636842814888854e-02  8.9381942941650208e-02  9.3544448468358368e-02  9.6044644682813568e-02  9.6916970881333941e-02  9.6319086537286339e-02  9.4324553475899270e-02  9.1005411317415144e-02  8.6469803632314352e-02  8.0848782349771914e-02  7.4308662694394303e-02  6.7058534200356262e-02  5.9348955784852261e-02  5.1460288152887855e-02  4.3681163358733843e-02  3.6279966126148727e-02  2.9476974055231333e-02  2.3424767508711045e-02  1.8200526658745202e-02  1.3812166400250878e-02  1.0213762771451742e-02  7.3253185360103324e-03  5.0505496848431281e-03  3.2886603018473892e-03  1.9441819184478450e-03  9.3380901860174402e-04  1.8862341776980360e-04  -3.4606171315381328e-04  -7.1176659422106153e-04  -9.3903780675126127e-04  -1.0501153808819119e-03  -1.0619073843171547e-03  -9.8902537033292116e-04  -8.4675083086370570e-04  -6.5394418925507662e-04  -4.3549976117405006e-04  -2.2446773101735112e-04  -5.9243563035009568e-05  1.0874650407996664e-05  -8.1273857742142652e-06  3.8339580711117139e-05  2.1808329875697003e-04  5.7836237259972301e-04  1.1408249175140299e-03  1.9016473129127105e-03  2.8343296035641483e-03  3.8954999921604972e-03  5.0316327715346785e-03  6.1860170620004554e-03  7.3051669570253523e-03  8.3440455424990852e-03  9.2696378482276780e-03  1.0062693135219640e-02  1.0717790953832350e-02  1.1241933562306244e-02  1.1652011117677018e-02  1.1971584021869059e-02  1.2227325189802737e-02  1.2445367101166793e-02  1.2647777800728474e-02  1.2849335469816224e-02  1.3054791470289914e-02  1.3256956922537191e-02  1.3435730743551576e-02  1.3558162076065500e-02  1.3580008429753399e-02  1.3448186117086178e-02  1.3101426383001642e-02  1.2470394999381516e-02  1.1476085459892168e-02  1.0032535846650143e-02  8.0503027429347992e-03  5.4281665170173516e-03  2.0267959375174401e-03  -2.3168075279725543e-03  -7.7483052159207436e-03  -1.4373021817854393e-02  -2.2289893381618513e-02  -3.1591672606592409e-02  -4.2330955267704133e-02  -5.4502188771950663e-02  -6.8018282905444385e-02  -8.2733000352848765e-02  -9.8445371104551066e-02  -1.1490196672667038e-01  -1.3181816934673471e-01  -1.4889662580766166e-01  -1.6584488953981805e-01  -1.8239110892329463e-01  -1.9829370556274697e-01  -2.1334785347598095e-01  -2.2738767670295143e-01  -2.4028537624758028e-01  -2.5194801404511619e-01  -2.6231289531916985e-01  -2.7134227557436169e-01  -2.7901798261753064e-01  -2.8533635086560682e-01  -2.9030371881363859e-01  -2.9393260565235169e-01  -2.9623864757951640e-01  -2.9723818614953074e-01  -2.9694685289741968e-01  -2.9537795815785439e-01  -2.9255140698900117e-01  -2.8846150205186843e-01  -2.8308985913014695e-01  -2.7643488060491050e-01  -2.6849157221881809e-01  -2.5925982541303288e-01  -2.4874669593408261e-01  -2.3696926946997496e-01  -2.2395893560412009e-01  -2.0976493639433538e-01  -1.9445851941375172e-01  -1.7813624961694341e-01  -1.6092306331750245e-01  -1.4297247492836801e-01  -1.2446893180115047e-01  -1.0560956668842782e-01  -8.6630529640751186e-02  -6.7775394199824826e-02  -4.9269403066459494e-02  -3.1353590232204041e-02  -1.4240344540321545e-02  1.8942157269464981e-03  1.6902828391210066e-02  3.0677337604273571e-02  4.3141795354073718e-02  5.4255210090588882e-02  6.3991812747717078e-02  7.2341030912882798e-02  7.9359087698241126e-02  8.4989458701507550e-02  8.9093770648544693e-02  9.1666203483966688e-02  9.2719327597157730e-02  9.2231095993141832e-02  9.0199240339208883e-02  8.6660456606969749e-02  8.1707333760467751e-02  7.5505963965617762e-02  6.8304884526821402e-02  6.0426425516593073e-02  5.2240553474137572e-02  4.4123998569703934e-02  3.6414609744942032e-02  2.9373852758442183e-02  2.3166720451176803e-02  1.7862338520057707e-02  1.3449557362257303e-02  9.8606683708253404e-03  6.9976533286413888e-03  4.7524632682763883e-03  3.0189749746325103e-03  1.7016629848089445e-03  7.2062213610412003e-04  1.1775979979274814e-05  -4.7460697148880984e-04  -7.7666960976111705e-04  -9.2435964865002305e-04  -9.4300659115890604e-04  -8.5680428303201532e-04  -6.9198375285453150e-04  -4.7937014906963751e-04  -2.5674858745089419e-04  -7.0017554586504098e-05  1.2915458560318048e-05  -1.4338737628165146e-05  7.0415384947241857e-05  3.5120971384252871e-04  8.5945079296130002e-04  1.6055068333229660e-03  2.5746369967982615e-03  3.7286621792167367e-03  5.0120070905638305e-03  6.3595270061642447e-03  7.7047673504304793e-03  8.9873036647240331e-03  1.0158272141653817e-02  1.1183750571627557e-02  1.2045882484005097e-02  1.2741951115683454e-02  1.3282032434086677e-02  1.3685696042939184e-02  1.3978118855805494e-02  1.4185886940437611e-02  1.4332766238503799e-02  1.4435621206794510e-02  1.4500603865264611e-02  1.4519796855888768e-02  1.4468913754649251e-02  1.4306534496415134e-02  1.3974584819179795e-02  1.3399283468304417e-02  1.2491622043929009e-02  1.1148840998840689e-02  9.2615468512300403e-03  6.7182577411928181e-03  3.3750325847143161e-03  -9.5310277707835072e-04  -6.4503779710965185e-03  -1.3267844774017748e-02  -2.1550225575512841e-02  -3.1441717958258564e-02  -4.3047561625339549e-02  -5.6393257746276737e-02  -7.1415136715750241e-02  -8.7967384607802554e-02  -1.0581401927532877e-01  -1.2464792465616294e-01  -1.4411300393724308e-01  -1.6383369056798669e-01  -1.8344321553998016e-01  -2.0260608490208765e-01  -2.2103497410580281e-01  -2.3849982677877191e-01  -2.5483021481091683e-01  -2.6991211801729853e-01  -2.8368077218515048e-01  -2.9611155825710461e-01  -3.0721012215586224e-01  -3.1700290742204934e-01  -3.2552873788957493e-01  -3.3283184053193943e-01  -3.3895640137899330e-01  -3.4394258433384767e-01  -3.4782382762588993e-01  -3.5062518751027882e-01  -3.5236248864139424e-01  -3.5304204591399269e-01  -3.5266082726004577e-01  -3.5120586498492251e-01  -3.4864761372090719e-01  -3.4496003573435946e-01  -3.4012094805078114e-01  -3.3409971181549836e-01  -3.2686728934731191e-01  -3.1839511921689606e-01  -3.0865852313843867e-01  -2.9763951644656195e-01  -2.8533059605258387e-01  -2.7173920820684927e-01  -2.5689264708973192e-01  -2.4084337812567519e-01  -2.2367398647429160e-01  -2.0550182543283380e-01  -1.8648029751513479e-01  -1.6680447088495592e-01  -1.4669945395326303e-01  -1.2641880428647334e-01  -1.0623791654170973e-01  -8.6430651277042247e-02  -6.7260277380278441e-02  -4.8958039796618294e-02  -3.1709257417139827e-02  -1.5648056214721619e-02  -8.5180775123706290e-04  1.2652040917133910e-02  2.4877752632425244e-02  3.5869119875520293e-02  4.5659802200509039e-02  5.4333201392529236e-02  6.1953843233313224e-02  6.8434611276693841e-02  7.3660219845159539e-02  7.7543561903843927e-02  7.9978269280179440e-02  8.0848696302760967e-02  8.0066525753195242e-02  7.7607445496786193e-02  7.3540470085655729e-02  6.8050408165738097e-02  6.1437584309007032e-02  5.4092056194431935e-02  4.6445479953808134e-02  3.8912120152247091e-02  3.1836171279016251e-02  2.5458698316072514e-02  1.9910057938221995e-02  1.5224094634374279e-02  1.1363139319703890e-02  8.2459384966266803e-03  5.7731811376750897e-03  3.8438984534685753e-03  2.3645709802669382e-03  1.2549224196304316e-03  4.4926513317005394e-04  -1.0508400451366651e-04  -4.5054752091352183e-04  -6.2269784458499728e-04  -6.5366554326166449e-04  -5.7539563380957549e-04  -4.2246574698859616e-04  -2.3572616096821690e-04  -6.6064542752074820e-05  1.2184606413261080e-05  -2.0245199651266358e-05  1.0004684736007213e-04  4.8031677765734417e-04  1.1391778684133873e-03  2.0725655282318235e-03  3.2500853174671062e-03  4.6169895776442971e-03  6.1013972319710194e-03  7.6238902756047876e-03  9.1073460267081380e-03  1.0485326659160344e-02  1.1707783371820294e-02  1.2743566409750558e-02  1.3580175242547770e-02  1.4221349635660491e-02  1.4683147965272456e-02  1.4989224220406015e-02  1.5165879766054801e-02  1.5237201077252797e-02  1.5220128205134452e-02  1.5119686176329097e-02  1.4924835577241325e-02  1.4605089691122588e-02  1.4107494321794615e-02  1.3356118257684454e-02  1.2252518307946148e-02  1.0677155028016102e-02  8.5001825778841973e-03  5.5820641379562535e-03  1.7453014945669402e-03  -3.2235673978264845e-03  -9.5186563067443091e-03  -1.7319111930811568e-02  -2.6819849390085110e-02  -3.8197772910269427e-02  -5.1554864494591568e-02  -6.6897311655071331e-02  -8.4127694343767934e-02  -1.0303315613221102e-01  -1.2329354972249165e-01  -1.4450643839511046e-01  -1.6622678435013008e-01  -1.8800465048238330e-01  -2.0942169339683908e-01  -2.3011913843923745e-01  -2.4981437521026725e-01  -2.6830610332796906e-01  -2.8547043755542095e-01  -3.0125056875329714e-01  -3.1564272187040843e-01  -3.2868099967451442e-01  -3.4042306771048048e-01  -3.5093797635694796e-01  -3.6029674065713591e-01  -3.6856573364089501e-01  -3.7580262713762885e-01  -3.8205438581449952e-01  -3.8735677228229398e-01  -3.9173483881189125e-01  -3.9520396755027770e-01  -3.9777112457047814e-01  -3.9943608028850597e-01  -4.0019246100179512e-01  -4.0002821284889573e-01  -3.9892656716199093e-01  -3.9687154982427314e-01  -3.9383973426953717e-01  -3.8979941825192166e-01  -3.8471560106769664e-01  -3.7854686388974884e-01  -3.7124807774931867e-01  -3.6277087006232417e-01  -3.5306618969730902e-01  -3.4208715626986924e-01  -3.2979330548645269e-01  -3.1615592508137114e-01  -3.0116461182536836e-01  -2.8483486767537947e-01  -2.6721605073742599e-01  -2.4839982552204384e-01  -2.2852486848717646e-01  -2.0778353221948528e-01  -1.8642005692450220e-01  -1.6472364020292707e-01  -1.4301857200359505e-01  -1.2164308135420886e-01  -1.0092705380241240e-01  -8.1166174023294679e-02  -6.2598399374185959e-02  -4.5387278501546710e-02  -2.9613619952906498e-02  -1.5280279642720621e-02  -2.3278198618322979e-03  9.3534840773303769e-03  1.9883365056747950e-02  2.9386102137555829e-02  3.7994253870587781e-02  4.5756650508301647e-02  5.2606109795123174e-02  5.8411262806184659e-02  6.3009113692185051e-02  6.6210665616089265e-02  6.7827231362065185e-02  6.7725337287898660e-02  6.5870212856578375e-02  6.2361262558250898e-02  5.7442300501085904e-02  5.1479014093364091e-02  4.4908640954570311e-02  3.8173817489507135e-02  3.1660484272358548e-02  2.5656317122651991e-02  2.0336490648090386e-02  1.5773861338410928e-02  1.1963282467813904e-02  8.8491384704010908e-03  6.3508405899159711e-03  4.3814682022032553e-03  2.8578638391762359e-03  1.7063169571934224e-03  8.6461705000322935e-04  2.8094708805004613e-04  -8.8355966406560086e-05  -2.8165283891582620e-04  -3.3496589330816589e-04  -2.8502061135258317e-04  -1.7351243275159640e-04  -5.1479967670665703e-05  9.4004823634873401e-06  -2.6127296103579694e-05  1.2914090616271463e-04  6.1133113831301925e-04  1.4287089429422021e-03  2.5604911135343254e-03  3.9556725491579894e-03  5.5370568140220939e-03  7.2111254677288440e-03  8.8804805301655014e-03  1.0456009226802083e-02  1.1866162264997464e-02  1.3062392554823832e-02  1.4020386342424836e-02  1.4737549362591595e-02  1.5227975361832633e-02  1.5516207333850928e-02  1.5630786819644013e-02  1.5597955076695627e-02  1.5435449910689288e-02  1.5147255044448261e-02  1.4717998130965373e-02  1.4107261884801714e-02  1.3246913508647522e-02  1.2040476817106658e-02  1.0361394277249978e-02  8.0622977599005066e-03  4.9787939736848173e-03  9.0562812022624119e-04  -4.3895325643999788e-03  -1.1119241085705112e-02  -1.9494169338682543e-02  -2.9748264200091249e-02  -4.2082857791962740e-02  -5.6613149794799832e-02  -7.3349655341313949e-02  -9.2173261192197042e-02  -1.1282112518646494e-01  -1.3490265197881574e-01  -1.5793643614151848e-01  -1.8139723646077049e-01  -2.047