<?xml version="1.0"?>
<VTKFile type="UnstructuredGrid"  version="0.1"  >
<UnstructuredGrid>
<Piece  NumberOfPoints="16641" NumberOfCells="16384">
<Points>
<DataArray  type="Float64"  NumberOfComponents="3"  format="ascii">0 0 0  0.0078125 0 0  0.015625 0 0  0.0234375 0 0  0.03125 0 0  0.0390625 0 0  0.046875 0 0  0.0546875 0 0  0.0625 0 0  0.0703125 0 0  0.078125 0 0  0.0859375 0 0  0.09375 0 0  0.1015625 0 0  0.109375 0 0  0.1171875 0 0  0.125 0 0  0.1328125 0 0  0.140625 0 0  0.1484375 0 0  0.15625 0 0  0.1640625 0 0  0.171875 0 0  0.1796875 0 0  0.1875 0 0  0.1953125 0 0  0.203125 0 0  0.2109375 0 0  0.21875 0 0  0.2265625 0 0  0.234375 0 0  0.2421875 0 0  0.25 0 0  0.2578125 0 0  0.265625 0 0  0.2734375 0 0  0.28125 0 0  0.2890625 0 0  0.296875 0 0  0.3046875 0 0  0.3125 0 0  0.3203125 0 0  0.328125 0 0  0.3359375 0 0  0.34375 0 0  0.3515625 0 0  0.359375 0 0  0.3671875 0 0  0.375 0 0  0.3828125 0 0  0.390625 0 0  0.3984375 0 0  0.40625 0 0  0.4140625 0 0  0.421875 0 0  0.4296875 0 0  0.4375 0 0  0.4453125 0 0  0.453125 0 0  0.4609375 0 0  0.46875 0 0  0.4765625 0 0  0.484375 0 0  0.4921875 0 0  0.5 0 0  0.5078125 0 0  0.515625 0 0  0.5234375 0 0  0.53125 0 0  0.5390625 0 0  0.546875 0 0  0.5546875 0 0  0.5625 0 0  0.5703125 0 0  0.578125 0 0  0.5859375 0 0  0.59375 0 0  0.6015625 0 0  0.609375 0 0  0.6171875 0 0  0.625 0 0  0.6328125 0 0  0.640625 0 0  0.6484375 0 0  0.65625 0 0  0.6640625 0 0  0.671875 0 0  0.6796875 0 0  0.6875 0 0  0.6953125 0 0  0.703125 0 0  0.7109375 0 0  0.71875 0 0  0.7265625 0 0  0.734375 0 0  0.7421875 0 0  0.75 0 0  0.7578125 0 0  0.765625 0 0  0.7734375 0 0  0.78125 0 0  0.7890625 0 0  0.796875 0 0  0.8046875 0 0  0.8125 0 0  0.8203125 0 0  0.828125 0 0  0.8359375 0 0  0.84375 0 0  0.8515625 0 0  0.859375 0 0  0.8671875 0 0  0.875 0 0  0.8828125 0 0  0.890625 0 0  0.8984375 0 0  0.90625 0 0  0.9140625 0 0  0.921875 0 0  0.9296875 0 0  0.9375 0 0  0.9453125 0 0  0.953125 0 0  0.9609375 0 0  0.96875 0 0  0.9765625 0 0  0.984375 0 0  0.9921875 0 0  1 0 0  0 0.0078125 0  0.0078125 0.0078125 0  0.015625 0.0078125 0  0.0234375 0.0078125 0  0.03125 0.0078125 0  0.0390625 0.0078125 0  0.046875 0.0078125 0  0.0546875 0.0078125 0  0.0625 0.0078125 0  0.0703125 0.0078125 0  0.078125 0.0078125 0  0.0859375 0.0078125 0  0.09375 0.0078125 0  0.1015625 0.0078125 0  0.109375 0.0078125 0  0.1171875 0.0078125 0  0.125 0.0078125 0  0.1328125 0.0078125 0  0.140625 0.0078125 0  0.1484375 0.0078125 0  0.15625 0.0078125 0  0.1640625 0.0078125 0  0.171875 0.0078125 0  0.1796875 0.0078125 0  0.1875 0.0078125 0  0.1953125 0.0078125 0  0.203125 0.0078125 0  0.2109375 0.0078125 0  0.21875 0.0078125 0  0.2265625 0.0078125 0  0.234375 0.0078125 0  0.2421875 0.0078125 0  0.25 0.0078125 0  0.2578125 0.0078125 0  0.265625 0.0078125 0  0.2734375 0.0078125 0  0.28125 0.0078125 0  0.2890625 0.0078125 0  0.296875 0.0078125 0  0.3046875 0.0078125 0  0.3125 0.0078125 0  0.3203125 0.0078125 0  0.328125 0.0078125 0  0.3359375 0.0078125 0  0.34375 0.0078125 0  0.3515625 0.0078125 0  0.359375 0.0078125 0  0.3671875 0.0078125 0  0.375 0.0078125 0  0.3828125 0.0078125 0  0.390625 0.0078125 0  0.3984375 0.0078125 0  0.40625 0.0078125 0  0.4140625 0.0078125 0  0.421875 0.0078125 0  0.4296875 0.0078125 0  0.4375 0.0078125 0  0.4453125 0.0078125 0  0.453125 0.0078125 0  0.4609375 0.0078125 0  0.46875 0.0078125 0  0.4765625 0.0078125 0  0.484375 0.0078125 0  0.4921875 0.0078125 0  0.5 0.0078125 0  0.5078125 0.0078125 0  0.515625 0.0078125 0  0.5234375 0.0078125 0  0.53125 0.0078125 0  0.5390625 0.0078125 0  0.546875 0.0078125 0  0.5546875 0.0078125 0  0.5625 0.0078125 0  0.5703125 0.0078125 0  0.578125 0.0078125 0  0.5859375 0.0078125 0  0.59375 0.0078125 0  0.6015625 0.0078125 0  0.609375 0.0078125 0  0.6171875 0.0078125 0  0.625 0.0078125 0  0.6328125 0.0078125 0  0.640625 0.0078125 0  0.6484375 0.0078125 0  0.65625 0.0078125 0  0.6640625 0.0078125 0  0.671875 0.0078125 0  0.6796875 0.0078125 0  0.6875 0.0078125 0  0.6953125 0.0078125 0  0.703125 0.0078125 0  0.7109375 0.0078125 0  0.71875 0.0078125 0  0.7265625 0.0078125 0  0.734375 0.0078125 0  0.7421875 0.0078125 0  0.75 0.0078125 0  0.7578125 0.0078125 0  0.765625 0.0078125 0  0.7734375 0.0078125 0  0.78125 0.0078125 0  0.7890625 0.0078125 0  0.796875 0.0078125 0  0.8046875 0.0078125 0  0.8125 0.0078125 0  0.8203125 0.0078125 0  0.828125 0.0078125 0  0.8359375 0.0078125 0  0.84375 0.0078125 0  0.8515625 0.0078125 0  0.859375 0.0078125 0  0.8671875 0.0078125 0  0.875 0.0078125 0  0.8828125 0.0078125 0  0.890625 0.0078125 0  0.8984375 0.0078125 0  0.90625 0.0078125 0  0.9140625 0.0078125 0  0.921875 0.0078125 0  0.9296875 0.0078125 0  0.9375 0.0078125 0  0.9453125 0.0078125 0  0.953125 0.0078125 0  0.9609375 0.0078125 0  0.96875 0.0078125 0  0.9765625 0.0078125 0  0.984375 0.0078125 0  0.9921875 0.0078125 0  1 0.0078125 0  0 0.015625 0  0.0078125 0.015625 0  0.015625 0.015625 0  0.0234375 0.015625 0  0.03125 0.015625 0  0.0390625 0.015625 0  0.046875 0.015625 0  0.0546875 0.015625 0  0.0625 0.015625 0  0.0703125 0.015625 0  0.078125 0.015625 0  0.0859375 0.015625 0  0.09375 0.015625 0  0.1015625 0.015625 0  0.109375 0.015625 0  0.1171875 0.015625 0  0.125 0.015625 0  0.1328125 0.015625 0  0.140625 0.015625 0  0.1484375 0.015625 0  0.15625 0.015625 0  0.1640625 0.015625 0  0.171875 0.015625 0  0.1796875 0.015625 0  0.1875 0.015625 0  0.1953125 0.015625 0  0.203125 0.015625 0  0.2109375 0.015625 0  0.21875 0.015625 0  0.2265625 0.015625 0  0.234375 0.015625 0  0.2421875 0.015625 0  0.25 0.015625 0  0.2578125 0.015625 0  0.265625 0.015625 0  0.2734375 0.015625 0  0.28125 0.015625 0  0.2890625 0.015625 0  0.296875 0.015625 0  0.3046875 0.015625 0  0.3125 0.015625 0  0.3203125 0.015625 0  0.328125 0.015625 0  0.3359375 0.015625 0  0.34375 0.015625 0  0.3515625 0.015625 0  0.359375 0.015625 0  0.3671875 0.015625 0  0.375 0.015625 0  0.3828125 0.015625 0  0.390625 0.015625 0  0.3984375 0.015625 0  0.40625 0.015625 0  0.4140625 0.015625 0  0.421875 0.015625 0  0.4296875 0.015625 0  0.4375 0.015625 0  0.4453125 0.015625 0  0.453125 0.015625 0  0.4609375 0.015625 0  0.46875 0.015625 0  0.4765625 0.015625 0  0.484375 0.015625 0  0.4921875 0.015625 0  0.5 0.015625 0  0.5078125 0.015625 0  0.515625 0.015625 0  0.5234375 0.015625 0  0.53125 0.015625 0  0.5390625 0.015625 0  0.546875 0.015625 0  0.5546875 0.015625 0  0.5625 0.015625 0  0.5703125 0.015625 0  0.578125 0.015625 0  0.5859375 0.015625 0  0.59375 0.015625 0  0.6015625 0.015625 0  0.609375 0.015625 0  0.6171875 0.015625 0  0.625 0.015625 0  0.6328125 0.015625 0  0.640625 0.015625 0  0.6484375 0.015625 0  0.65625 0.015625 0  0.6640625 0.015625 0  0.671875 0.015625 0  0.6796875 0.015625 0  0.6875 0.015625 0  0.6953125 0.015625 0  0.703125 0.015625 0  0.7109375 0.015625 0  0.71875 0.015625 0  0.7265625 0.015625 0  0.734375 0.015625 0  0.7421875 0.015625 0  0.75 0.015625 0  0.7578125 0.015625 0  0.765625 0.015625 0  0.7734375 0.015625 0  0.78125 0.015625 0  0.7890625 0.015625 0  0.796875 0.015625 0  0.8046875 0.015625 0  0.8125 0.015625 0  0.8203125 0.015625 0  0.828125 0.015625 0  0.8359375 0.015625 0  0.84375 0.015625 0  0.8515625 0.015625 0  0.859375 0.015625 0  0.8671875 0.015625 0  0.875 0.015625 0  0.8828125 0.015625 0  0.890625 0.015625 0  0.8984375 0.015625 0  0.90625 0.015625 0  0.9140625 0.015625 0  0.921875 0.015625 0  0.9296875 0.015625 0  0.9375 0.015625 0  0.9453125 0.015625 0  0.953125 0.015625 0  0.9609375 0.015625 0  0.96875 0.015625 0  0.9765625 0.015625 0  0.984375 0.015625 0  0.9921875 0.015625 0  1 0.015625 0  0 0.0234375 0  0.0078125 0.0234375 0  0.015625 0.0234375 0  0.0234375 0.0234375 0  0.03125 0.0234375 0  0.0390625 0.0234375 0  0.046875 0.0234375 0  0.0546875 0.0234375 0  0.0625 0.0234375 0  0.0703125 0.0234375 0  0.078125 0.0234375 0  0.0859375 0.0234375 0  0.09375 0.0234375 0  0.1015625 0.0234375 0  0.109375 0.0234375 0  0.1171875 0.0234375 0  0.125 0.0234375 0  0.1328125 0.0234375 0  0.140625 0.0234375 0  0.1484375 0.0234375 0  0.15625 0.0234375 0  0.1640625 0.0234375 0  0.171875 0.0234375 0  0.1796875 0.0234375 0  0.1875 0.0234375 0  0.1953125 0.0234375 0  0.203125 0.0234375 0  0.2109375 0.0234375 0  0.21875 0.0234375 0  0.2265625 0.0234375 0  0.234375 0.0234375 0  0.2421875 0.0234375 0  0.25 0.0234375 0  0.2578125 0.0234375 0  0.265625 0.0234375 0  0.2734375 0.0234375 0  0.28125 0.0234375 0  0.2890625 0.0234375 0  0.296875 0.0234375 0  0.3046875 0.0234375 0  0.3125 0.0234375 0  0.3203125 0.0234375 0  0.328125 0.0234375 0  0.3359375 0.0234375 0  0.34375 0.0234375 0  0.3515625 0.0234375 0  0.359375 0.0234375 0  0.3671875 0.0234375 0  0.375 0.0234375 0  0.3828125 0.0234375 0  0.390625 0.0234375 0  0.3984375 0.0234375 0  0.40625 0.0234375 0  0.4140625 0.0234375 0  0.421875 0.0234375 0  0.4296875 0.0234375 0  0.4375 0.0234375 0  0.4453125 0.0234375 0  0.453125 0.0234375 0  0.4609375 0.0234375 0  0.46875 0.0234375 0  0.4765625 0.0234375 0  0.484375 0.0234375 0  0.4921875 0.0234375 0  0.5 0.0234375 0  0.5078125 0.0234375 0  0.515625 0.0234375 0  0.5234375 0.0234375 0  0.53125 0.0234375 0  0.5390625 0.0234375 0  0.546875 0.0234375 0  0.5546875 0.0234375 0  0.5625 0.0234375 0  0.5703125 0.0234375 0  0.578125 0.0234375 0  0.5859375 0.0234375 0  0.59375 0.0234375 0  0.6015625 0.0234375 0  0.609375 0.0234375 0  0.6171875 0.0234375 0  0.625 0.0234375 0  0.6328125 0.0234375 0  0.640625 0.0234375 0  0.6484375 0.0234375 0  0.65625 0.0234375 0  0.6640625 0.0234375 0  0.671875 0.0234375 0  0.6796875 0.0234375 0  0.6875 0.0234375 0  0.6953125 0.0234375 0  0.703125 0.0234375 0  0.7109375 0.0234375 0  0.71875 0.0234375 0  0.7265625 0.0234375 0  0.734375 0.0234375 0  0.7421875 0.0234375 0  0.75 0.0234375 0  0.7578125 0.0234375 0  0.765625 0.0234375 0  0.7734375 0.0234375 0  0.78125 0.0234375 0  0.7890625 0.0234375 0  0.796875 0.0234375 0  0.8046875 0.0234375 0  0.8125 0.0234375 0  0.8203125 0.0234375 0  0.828125 0.0234375 0  0.8359375 0.0234375 0  0.84375 0.0234375 0  0.8515625 0.0234375 0  0.859375 0.0234375 0  0.8671
[...]
<PointData  Scalars="v_sol"> 
<DataArray  type="Float64"  Name="v_sol"  format="ascii">-1.2686877050246916e-06  -1.8862430021156346e-06  3.0198746123069341e-06  1.1202737326985475e-05  2.0355151283323922e-05  2.9062386975183540e-05  3.6373073761828526e-05  4.1626861948680756e-05  4.4447302698087309e-05  4.4760000708737375e-05  4.2782145442595079e-05  3.8971796163887934e-05  3.3945299021023973e-05  2.8381708019325892e-05  2.2934851688291132e-05  1.8160857462657869e-05  1.4474334626430441e-05  1.2130282261907494e-05  1.1222846724728291e-05  1.1696701229437372e-05  1.3366726908491837e-05  1.5936732517905180e-05  1.9024937249253522e-05  2.2199347141418606e-05  2.5022444127466705e-05  2.7095981705285820e-05  2.8128685288949535e-05  2.8000109180245200e-05  2.6619462061655993e-05  2.3896408362347944e-05  1.9937558567028956e-05  1.4976496918378172e-05  8.5458609128972038e-06  3.1465568895953217e-07  -1.0630224844759098e-05  -2.5059739795156306e-05  -4.3523341752822679e-05  -6.3749095583787930e-05  -8.7144356078049375e-05  -1.1317128611090338e-04  -1.4884727982818549e-04  -1.9174363610200410e-04  -2.3840400265883911e-04  -2.9001376766225949e-04  -3.4386260936545004e-04  -3.9749491111123125e-04  -4.5494791080917611e-04  -5.1243750878938728e-04  -5.6776635662040447e-04  -6.1886856451836235e-04  -6.6367021000130963e-04  -7.0024936486907268e-04  -7.2695732281723862e-04  -7.4250936575157153e-04  -7.4602843866664157e-04  -7.3704051774022700e-04  -7.1543380212195590e-04  -6.8139603097510499e-04  -6.3534466146586812e-04  -5.7786301692217240e-04  -5.0965267092873919e-04  -4.3150492737444496e-04  -3.4426097261437146e-04  -2.4877261123464029e-04  -1.4703624811686757e-04  -4.0905379932355361e-05  8.4711965057805217e-05  2.0812316533099195e-04  3.3073624232185950e-04  4.5409399390682721e-04  5.7484561968430272e-04  6.9146836666126655e-04  8.0148611912360986e-04  9.0270303110637727e-04  9.9275893848343641e-04  1.0694058444078826e-03  1.1304966169228086e-03  1.1740873159730215e-03  1.1989271260130199e-03  1.2012094920005149e-03  1.2001506107217558e-03  1.1384677214984604e-03  1.0732653509176444e-03  1.0052991543403349e-03  9.0451852783875403e-04  7.9135666988610319e-04  6.6564013014531033e-04  5.3200543504654783e-04  3.9525408889244846e-04  2.5814888306422513e-04  1.2873032615043866e-04  -6.7649019736714444e-06  -1.2245929252889510e-04  -2.0232836300178176e-04  -2.8806967856884441e-04  -3.6294242047051143e-04  -4.2179418272046150e-04  -4.6873114462369546e-04  -5.0211132974117346e-04  -5.2090335028337324e-04  -5.2446835923445104e-04  -5.1282343693205936e-04  -4.8691577516458718e-04  -4.4894891596277276e-04  -4.0215371534688577e-04  -3.5030713286440205e-04  -2.9722271110250238e-04  -2.4616314402649747e-04  -1.9914491458259220e-04  -1.5772700288998226e-04  -1.2246239755657785e-04  -9.3534347323159534e-05  -7.0353513116948828e-05  -5.2030401407615929e-05  -3.7762995711179431e-05  -2.6779066651922793e-05  -1.8285824024254212e-05  -1.1603066015362185e-05  -6.1651117824909905e-06  -1.5434301587321076e-06  2.5425598784033469e-06  6.2211121087824847e-06  9.4566070387333846e-06  1.2044519747085675e-05  1.3593396645404569e-05  1.3525681545755930e-05  1.1052395558635048e-05  6.1208564059029958e-06  4.9832555026208342e-07  5.4743972215793557e-06  1.7456277399993425e-05  -9.7354058466663890e-06  -5.4314227246904205e-05  -1.0316874348820630e-04  -1.4935142851163724e-04  -1.8803881290620499e-04  -2.1577249537923254e-04  -2.3054548210095147e-04  -2.3196499347761108e-04  -2.2122075309068413e-04  -2.0080857379934115e-04  -1.7406968355098722e-04  -1.4465903906826522e-04  -1.1605750682755999e-04  -9.1194544901946028e-05  -7.2225472826311179e-05  -6.0448967079233000e-05  -5.6321669650183393e-05  -5.9531068381405183e-05  -6.9095703187280406e-05  -8.3465493671151892e-05  -1.0064695773962686e-04  -1.1837921574903317e-04  -1.3437382915816278e-04  -1.4657771587448811e-04  -1.5349780184983471e-04  -1.5445090120261176e-04  -1.4919419301901395e-04  -1.3776893493999090e-04  -1.2080034143065212e-04  -9.8468583138823667e-05  -6.9093665905950834e-05  -3.1305361800431756e-05  1.8110489309798349e-05  8.3498145002021924e-05  1.6720794963313217e-04  2.6460788517167585e-04  3.7837475009721834e-04  5.1239441163710602e-04  6.8331601496794659e-04  8.8602296416040915e-04  1.1105792875327101e-03  1.3564269473381714e-03  1.6190007348448748e-03  1.8971111864142752e-03  2.1866659087935942e-03  2.4792203730456871e-03  2.7651098318803320e-03  3.0346052821210254e-03  3.2779399830773727e-03  3.4857973321598414e-03  3.6499056589511048e-03  3.7634336727447033e-03  3.8211970841864266e-03  3.8196708080916616e-03  3.7568518395833857e-03  3.6320266816233945e-03  3.4455050528988881e-03  3.1983702296838491e-03  2.8922920465061014e-03  2.5294431569194641e-03  2.1125375540427633e-03  1.6447312150271861e-03  1.1285344331832077e-03  5.6540196955074469e-04  -4.4426505898601790e-05  -6.9098670427729836e-04  -1.3666938269121679e-03  -2.0619349475310849e-03  -2.7657506250181024e-03  -3.4655160495928915e-03  -4.1459834205375768e-03  -4.7899278345600021e-03  -5.3782578399554680e-03  -5.8908376171434252e-03  -6.3074790706510011e-03  -6.6094073276384748e-03  -6.7808901564087578e-03  -6.8132542608910452e-03  -6.6824843886096816e-03  -6.3965695849974137e-03  -5.9775708522449150e-03  -5.4411353374643843e-03  -4.7987505907100885e-03  -4.0755529335244622e-03  -3.3036285798836219e-03  -2.5128305983918831e-03  -1.7311072020782549e-03  -9.8176391802772575e-04  -2.8346172461634424e-04  3.5625021492737002e-04  9.1804691488278699e-04  1.3737744457092424e-03  1.7725290004091351e-03  2.1156190618656962e-03  2.3844224937729030e-03  2.5836538316731353e-03  2.7128833682845931e-03  2.7683972199027641e-03  2.7484486323092932e-03  2.6548732417799271e-03  2.4941480744662746e-03  2.2783450819889805e-03  2.0240634380153050e-03  1.7500962350070737e-03  1.4746730163515134e-03  1.2129185292125287e-03  9.7537412290472946e-04  7.6805848649405474e-04  5.9306302388078592e-04  4.5002642215155033e-04  3.3597149424407661e-04  2.4650850177975934e-04  1.7735002826389475e-04  1.2440512143199164e-04  8.3684311448620089e-05  5.1722009874939459e-05  2.5655727944693498e-05  3.3157112483788812e-06  -1.6706369335623356e-05  -3.5026925615802389e-05  -5.1422952735139421e-05  -6.4790757607045236e-05  -7.3055042811500030e-05  -7.2974508766945683e-05  -6.0028016989418568e-05  -2.9775444303599424e-05  4.3347281526941874e-06  1.6483355493776145e-05  1.5652279071569668e-05  -9.7173386589656540e-05  -2.6822111996402013e-04  -4.5618567253358585e-04  -6.3417437326939786e-04  -7.8292563775118364e-04  -8.8898727903230859e-04  -9.4484943971030451e-04  -9.4921890159077203e-04  -9.0668218325127181e-04  -8.2660761355940080e-04  -7.2148794651991912e-04  -6.0505295190761677e-04  -4.9049356509359078e-04  -3.8908968011625033e-04  -3.0930125436975394e-04  -2.5632789884633231e-04  -2.3207150724373772e-04  -2.3532886777129266e-04  -2.6209818160723348e-04  -3.0600347756114401e-04  -3.5883197334328048e-04  -4.1123264202141811e-04  -4.5368554005547192e-04  -4.7766138475022554e-04  -4.7636474037281011e-04  -4.4531855248610325e-04  -3.8296588661891021e-04  -2.8891507068269212e-04  -1.6208503712213627e-04  1.8684465443020329e-06  2.1094419713401670e-04  4.7322850592867500e-04  7.9110041140627915e-04  1.1763991104756708e-03  1.6495541180111071e-03  2.2284344707725096e-03  2.9035242023103362e-03  3.6738121527631171e-03  4.5456733377163532e-03  5.5183356420410376e-03  6.5713488231280677e-03  7.6773612089852204e-03  8.8058633812529707e-03  9.9247431091255747e-03  1.1003545933200874e-02  1.2001595076242239e-02  1.2880374440533247e-02  1.3606886270230734e-02  1.4154113257102568e-02  1.4502054565196128e-02  1.4638026234435357e-02  1.4556317954601760e-02  1.4257333440503889e-02  1.3746424065183716e-02  1.3032598116475964e-02  1.2127275306763791e-02  1.1043206126190865e-02  9.7936358912304681e-03  8.3917528514726031e-03  6.8504269281700336e-03  5.1821965225559699e-03  3.3994472502634730e-03  1.5146872146572675e-03  -4.6131907725556210e-04  -2.5155855818102314e-03  -4.6178108529531161e-03  -6.7517127370909993e-03  -8.8970288235748502e-03  -1.1025897853858909e-02  -1.3106977107526917e-02  -1.5103548365308960e-02  -1.6974284726252085e-02  -1.8673920033723337e-02  -2.0154681957064477e-02  -2.1368434976040775e-02  -2.2269459143566574e-02  -2.2817914906250781e-02  -2.2980872193439153e-02  -2.2745021450966404e-02  -2.2063939417854502e-02  -2.1000609264257463e-02  -1.9596992744705475e-02  -1.7861791488777545e-02  -1.5862307039417538e-02  -1.3666028328449592e-02  -1.1346520935453623e-02  -8.9748079655174156e-03  -6.6145977214001131e-03  -4.3208575711812533e-03  -2.1237117089069929e-03  -6.6340078423057766e-05  1.8199567505984523e-03  3.5086391070435195e-03  5.0073354932051225e-03  6.3321609674360183e-03  7.4644893154432127e-03  8.3830783479943334e-03  9.0643393342498078e-03  9.4818562340650003e-03  9.6137572965323773e-03  9.4531746158270907e-03  9.0150384300141870e-03  8.3390325672944490e-03  7.4862449927571807e-03  6.5299317889953032e-03  5.5435043428893804e-03  4.5895096794447126e-03  3.7141233741850898e-03  2.9448716937095286e-03  2.2925269790145552e-03  1.7551506018644023e-03  1.3229294257855429e-03  9.8149010570327405e-04  7.1426243203076903e-04  5.0523510413503928e-04  3.3976689411331488e-04  2.0541443437646550e-04  9.2541964455269846e-05  -5.3903211651079318e-06  -9.1646192987009196e-05  -1.6616445710012655e-04  -2.2549356383437749e-04  -2.6270465839152240e-04  -2.6738114228051877e-04  -2.2646117565479511e-04  -1.3098124222442223e-04  3.8755549113817639e-07  2.3300380040471512e-05  -5.1613345504433869e-05  -2.9953838206300874e-04  -6.4509652965500720e-04  -1.0194142786704920e-03  -1.3714855774524634e-03  -1.6631630353226513e-03  -1.8680810642483963e-03  -1.9721085998946181e-03  -1.9735154013635872e-03  -1.8819504553675337e-03  -1.7161108315910281e-03  -1.5004793245553950e-03  -1.2617927281512573e-03  -1.0257490255006756e-03  -8.1434976950490860e-04  -6.4412350463132341e-04  -5.2518397171185522e-04  -4.6104761784698448e-04  -4.4882734538560261e-04  -4.7982265016597252e-04  -5.4028578306910689e-04  -6.1255944867569928e-04  -6.7656882651453943e-04  -7.1164865179017798e-04  -6.9872871968710009e-04  -6.2279654358176045e-04  -4.7353709837176327e-04  -2.4364489798130962e-04  7.4385984152600357e-05  4.8926975905863677e-04  1.0048342357747077e-03  1.6344150140556631e-03  2.4079419198226515e-03  3.3572897567460524e-03  4.4907858885856310e-03  5.8230416306042452e-03  7.3731850316217590e-03  9.1397443260588119e-03  1.1097133633435898e-02  1.3204669978157129e-02  1.5426150677779922e-02  1.7703841842317287e-02  1.9957002456338420e-02  2.2105716835204660e-02  2.4070832864538139e-02  2.5776515722996298e-02  2.7161355238692769e-02  2.8177298821580446e-02  2.8793296167319300e-02  2.8995044919537385e-02  2.8783221401130044e-02  2.8170923234883592e-02  2.7180585503157721e-02  2.5840867304563402e-02  2.4183791563577497e-02  2.2242342914048741e-02  2.0048615914803260e-02  1.7632533764487191e-02  1.5021102368161702e-02  1.2238134277469694e-02  9.3043649098573551e-03  6.2379032904732231e-03  3.0550538354928978e-03  -2.2803621947600609e-04  -3.5940198877290296e-03  -7.0165081487305620e-03  -1.0487395122903196e-02  -1.3983649569623502e-02  -1.7475933804155300e-02  -2.0930694196675349e-02  -2.4305555759691313e-02  -2.7550741540337965e-02  -3.0608224600890507e-02  -3.3412925416745835e-02  -3.5894308336612599e-02  -3.7979221333354275e-02  -3.9595682975306780e-02  -4.0677284660555244e-02  -4.1168920354695604e-02  -4.1026853687351442e-02  -4.0257952920122221e-02  -3.8843982879105746e-02  -3.6827973040452933e-02  -3.4285501841143380e-02  -3.1286796053359135e-02  -2.7929057607392234e-02  -2.4318404388519958e-02  -2.0558993417868508e-02  -1.6746468640765073e-02  -1.2959100140475291e-02  -9.2703590174274056e-03  -5.7052463287457448e-03  -2.2732208259482788e-03  9.7561919986649884e-04  4.0164306519747681e-03  6.8320035593390505e-03  9.4138306443838152e-03  1.1730341739965396e-02  1.3723446612251848e-02  1.5318490884539121e-02  1.6437130894072772e-02  1.7010956867782766e-02  1.7003320778192707e-02  1.6426391343239494e-02  1.5347831723662905e-02  1.3884115580518995e-02  1.2180740203623886e-02  1.0386886742231991e-02  8.6318840735800841e-03  7.0108744813167506e-03  5.5803566679553575e-03  4.3635632365393714e-03  3.3581491013223003e-03  2.5452451413021182e-03  1.8973675967826585e-03  1.3834314306252556e-03  9.7327155471912822e-04  6.4047618562591412e-04  3.6382742522880583e-04  1.2833706658426307e-04  -7.4374290140681273e-05  -2.4600444632639519e-04  -3.8168721984315406e-04  -4.7020732755537583e-04  -4.9458805606890637e-04  -4.3426629932366134e-04  -2.7147119663231022e-04  -8.6592070709131401e-06  2.7359528956851543e-05  -1.9202517211008589e-04  -6.2690789644096877e-04  -1.1886079647448035e-03  -1.7828247541916741e-03  -2.3335762775109022e-03  -2.7822131790407084e-03  -3.0885990558441718e-03  -3.2324656524182443e-03  -3.2133391276911597e-03  -3.0483472322605041e-03  -2.7681672519357793e-03  -2.4117876424756702e-03  -2.0209258916497825e-03  -1.6350935722810008e-03  -1.2876807335112260e-03  -1.0033513611551366e-03  -7.9659718003252113e-04  -6.7134972310241780e-04  -6.2129358485379688e-04  -6.3052991893420174e-04  -6.7478276766292668e-04  -7.2320905031124036e-04  -7.4101081246170919e-04  -6.9252072442766994e-04  -5.4508137744252298e-04  -2.7061651126285817e-04  1.5468071908159608e-04  7.4711376808033749e-04  1.5147468009602044e-03  2.4771598966030254e-03  3.6722261260748279e-03  5.1259036782012124e-03  6.8658518306794862e-03  8.9331559667853201e-03  1.1348824603026740e-02  1.4100937434225729e-02  1.7159929791457612e-02  2.0488158339147373e-02  2.4004176661597921e-02  2.7603950189020725e-02  3.1161226832499722e-02  3.4543430140484367e-02  3.7622740390179647e-02  4.0282148671062855e-02  4.2428107426072115e-02  4.3995494119762259e-02  4.4947489590006447e-02  4.5275099386950943e-02  4.4992757358372340e-02  4.4133487926456133e-02  4.2743148869216194e-02  4.0875067366565862e-02  3.8585347844811498e-02  3.5929136833744796e-02  3.2957900657258281e-02  2.9717659701035275e-02  2.6248052612471838e-02  2.2582075164665184e-02  1.8746339264844630e-02  1.4761716999916071e-02  1.0644264732191669e-02  6.4063625470852570e-03  2.0580490520679309e-03  -2.3917207724576668e-03  -6.9325402094180888e-03  -1.1559260619753526e-02  -1.6251293424300810e-02  -2.0986323366061467e-02  -2.5735688113590595e-02  -3.0460458642540978e-02  -3.5111850340770752e-02  -3.9629052969351902e-02  -4.3939415968685315e-02  -4.7958602325797954e-02  -5.1592410331742257e-02  -5.4739780024125856e-02  -5.7297474020753227e-02  -5.9166365535607036e-02  -6.0258817919916219e-02  -6.0510245865139881e-02  -5.9872593950797290e-02  -5.8351433892714223e-02  -5.5978230406536968e-02  -5.2823253607975428e-02  -4.8997009979993428e-02  -4.4630723697683290e-02  -3.9872898587045069e-02  -3.4873745152737570e-02  -2.9769768194673630e-02  -2.4678613521849996e-02  -1.9683704967774746e-02  -1.4848521470305513e-02  -1.0201991930676850e-02  -5.6952321291318464e-03  -1.3321311270772787e-03  2.8698177583184759e-03  6.8993152322560066e-03  1.0723398659566603e-02  1.4279082703668910e-02  1.7464831936658452e-02  2.0139705231675530e-02  2.2151867049730770e-02  2.3366160277338656e-02  2.3699230808298461e-02  2.3149696451010750e-02  2.1808934584867018e-02  1.9849812151378887e-02  1.7494256610188975e-02  1.4971492881348525e-02  1.2480564857915552e-02  1.0167970099874100e-02  8.1210769797107150e-03  6.3749042319349572e-03  4.9258746887291417e-03  3.7463543964034712e-03  2.7956988835823103e-03  2.0296096543891144e-03  1.4061659480139735e-03  8.9033179709439489e-04  4.5607729765168660e-04  8.7451092947077688e-05  -2.2124242282886930e-04  -4.6575089297506647e-04  -6.3247160079043260e-04  -6.9945426290798571e-04  -6.3831547837560852e-04  -4.1686630524559616e-04  -1.8245751971071517e-05  3.0153988210066556e-05  -4.0346619061758254e-04  -1.0811854144256454e-03  -1.9012696129182803e-03  -2.7446795336335734e-03  -3.5097279806920855e-03  -4.1166651109540361e-03  -4.5121669548304566e-03  -4.6718685824399175e-03  -4.5998344642960397e-03  -4.3246519015168504e-03  -3.8927471099148804e-03  -3.3605622260481235e-03  -2.7866349784057593e-03  -2.2248431170027983e-03  -1.7193529713666299e-03  -1.3013215943441646e-03  -9.8730783062224567e-04  -7.7876805875441138e-04  -6.6219966279260079e-04  -6.1055071669149669e-04  -5.8459555785977805e-04  -5.3525928652710549e-04  -4.0794187487270091e-04  -1.4735047332580054e-04  3.0047858774467624e-04  9.7908366102318167e-04  1.9182454366814773e-03  3.1527752958272408e-03  4.7216970766772795e-03  6.6526779739294094e-03  8.9893847925247763e-03  1.1780524191216998e-02  1.5048704205201919e-02  1.8793080983345565e-02  2.2998517432986570e-02  2.7598720096506945e-02  3.2481615388011219e-02  3.7493349028246942e-02  4.2459209844860256e-02  4.7188185085392360e-02  5.1497697700817260e-02  5.5228682539702097e-02  5.8256562709708387e-02  6.0498985988309897e-02  6.1916357423667190e-02  6.2508082928179803e-02  6.2305824014106413e-02  6.1364744800583515e-02  5.9755058308572737e-02  5.7554221181163191e-02  5.4840635916848214e-02  5.1688897757822080e-02  4.8166665400787595e-02  4.4332879092079648e-02  4.0237065866052336e-02  3.5919423867553965e-02  3.1411431727412481e-02  2.6736777937108318e-02  2.1912467777965575e-02  1.6950014743766915e-02  1.1856660956747577e-02  6.6365847353641195e-03  1.2920072813813203e-03  -4.1762568204807447e-03  -9.7649712624100823e-03  -1.5461323984967990e-02  -2.1255220790170757e-02  -2.7127509345759849e-02  -3.3050862861858800e-02  -3.8987429308158121e-02  -4.4886334298258335e-02  -5.0682185775269693e-02  -5.6293536205047595e-02  -6.1622604584130547e-02  -6.6555997442129616e-02  -7.0967236968669842e-02  -7.4721236478117709e-02  -7.7681054800583196e-02  -7.9717032803345175e-02  -8.0716189084609286e-02  -8.0599876862178371e-02  -7.9323767085908700e-02  -7.6898686625179416e-02  -7.3389844896682960e-02  -6.8915083354312290e-02  -6.3640646126817441e-02  -5.7764907372158884e-02  -5.1500603248722646e-02  -4.5053880502890650e-02  -3.8604017496698860e-02  -3.2291905159522342e-02  -2.6206094063227700e-02  -2.0383260137828343e-02  -1.4835975465491438e-02  -9.4954054511102587e-03  -4.2900934515196143e-03  8.1085151569816280e-04  5.8221374590267687e-03  1.0709657646671790e-02  1.5377119365121953e-02  1.9674236353434741e-02  2.3390217071572971e-02  2.6292329776711226e-02  2.8173503711342099e-02  2.8900969897939024e-02  2.8459326523146422e-02  2.6963800226096346e-02  2.4641283466711208e-02  2.1783878922338320e-02  1.8691516023129337e-02  1.5622419263661452e-02  1.2764203328815131e-02  1.0227679859831793e-02  8.0562592951722752e-03  6.2441374240808601e-03  4.7552496408630350e-03  3.5393473297611147e-03  2.5431940860497224e-03  1.7187058300518188e-03  1.0281101228768095e-03  4.4628926876858318e-04  -3.8485460097939980e-05  -4.2481056882642977e-04  -6.9888186218823307e-04  -8.3536923262297284e-04  -7.9815521883982619e-04  -5.4010992245047277e-04  -2.7373109940907178e-05  3.2721689717805473e-05  -6.8391341065422349e-04  -1.6648679625434000e-03  -2.7898654530165482e-03  -3.9120400014342992e-03  -4.9019208427326395e-03  -5.6581976616260363e-03  -6.1159308125475842e-03  -6.2506167710658393e-03  -6.0762733725597722e-03  -5.6388125231652559e-03  -5.0057470607747963e-03  -4.2548363581688814e-03  -3.4632683563703844e-03  -2.6991295344330297e-03  -2.0153054992005249e-03  -1.4461879368876916e-03  -1.0058355445813673e-03  -6.8790226731616508e-04  -4.6650724779968367e-04  -2.9617741177785352e-04  -1.1554584220866826e-04  1.4844262807621109e-04  5.7811643731327418e-04  1.2540902857736574e-03  2.2448951300747810e-03  3.6185530269787674e-03  5.4357722505324431e-03  7.7387035611429615e-03  1.0578967491948007e-02  1.4006541871672207e-02  1.8048546795807870e-02  2.2726657331548182e-02  2.8026318645594881e-02  3.3869678263005049e-02  4.0116183780038416e-02  4.6575209063662699e-02  5.3012980371332237e-02  5.91806754540161