<?xml version="1.0"?>
<VTKFile type="UnstructuredGrid"  version="0.1"  >
<UnstructuredGrid>
<Piece  NumberOfPoints="16641" NumberOfCells="16384">
<Points>
<DataArray  type="Float64"  NumberOfComponents="3"  format="ascii">0 0 0  0.0078125 0 0  0.015625 0 0  0.0234375 0 0  0.03125 0 0  0.0390625 0 0  0.046875 0 0  0.0546875 0 0  0.0625 0 0  0.0703125 0 0  0.078125 0 0  0.0859375 0 0  0.09375 0 0  0.1015625 0 0  0.109375 0 0  0.1171875 0 0  0.125 0 0  0.1328125 0 0  0.140625 0 0  0.1484375 0 0  0.15625 0 0  0.1640625 0 0  0.171875 0 0  0.1796875 0 0  0.1875 0 0  0.1953125 0 0  0.203125 0 0  0.2109375 0 0  0.21875 0 0  0.2265625 0 0  0.234375 0 0  0.2421875 0 0  0.25 0 0  0.2578125 0 0  0.265625 0 0  0.2734375 0 0  0.28125 0 0  0.2890625 0 0  0.296875 0 0  0.3046875 0 0  0.3125 0 0  0.3203125 0 0  0.328125 0 0  0.3359375 0 0  0.34375 0 0  0.3515625 0 0  0.359375 0 0  0.3671875 0 0  0.375 0 0  0.3828125 0 0  0.390625 0 0  0.3984375 0 0  0.40625 0 0  0.4140625 0 0  0.421875 0 0  0.4296875 0 0  0.4375 0 0  0.4453125 0 0  0.453125 0 0  0.4609375 0 0  0.46875 0 0  0.4765625 0 0  0.484375 0 0  0.4921875 0 0  0.5 0 0  0.5078125 0 0  0.515625 0 0  0.5234375 0 0  0.53125 0 0  0.5390625 0 0  0.546875 0 0  0.5546875 0 0  0.5625 0 0  0.5703125 0 0  0.578125 0 0  0.5859375 0 0  0.59375 0 0  0.6015625 0 0  0.609375 0 0  0.6171875 0 0  0.625 0 0  0.6328125 0 0  0.640625 0 0  0.6484375 0 0  0.65625 0 0  0.6640625 0 0  0.671875 0 0  0.6796875 0 0  0.6875 0 0  0.6953125 0 0  0.703125 0 0  0.7109375 0 0  0.71875 0 0  0.7265625 0 0  0.734375 0 0  0.7421875 0 0  0.75 0 0  0.7578125 0 0  0.765625 0 0  0.7734375 0 0  0.78125 0 0  0.7890625 0 0  0.796875 0 0  0.8046875 0 0  0.8125 0 0  0.8203125 0 0  0.828125 0 0  0.8359375 0 0  0.84375 0 0  0.8515625 0 0  0.859375 0 0  0.8671875 0 0  0.875 0 0  0.8828125 0 0  0.890625 0 0  0.8984375 0 0  0.90625 0 0  0.9140625 0 0  0.921875 0 0  0.9296875 0 0  0.9375 0 0  0.9453125 0 0  0.953125 0 0  0.9609375 0 0  0.96875 0 0  0.9765625 0 0  0.984375 0 0  0.9921875 0 0  1 0 0  0 0.0078125 0  0.0078125 0.0078125 0  0.015625 0.0078125 0  0.0234375 0.0078125 0  0.03125 0.0078125 0  0.0390625 0.0078125 0  0.046875 0.0078125 0  0.0546875 0.0078125 0  0.0625 0.0078125 0  0.0703125 0.0078125 0  0.078125 0.0078125 0  0.0859375 0.0078125 0  0.09375 0.0078125 0  0.1015625 0.0078125 0  0.109375 0.0078125 0  0.1171875 0.0078125 0  0.125 0.0078125 0  0.1328125 0.0078125 0  0.140625 0.0078125 0  0.1484375 0.0078125 0  0.15625 0.0078125 0  0.1640625 0.0078125 0  0.171875 0.0078125 0  0.1796875 0.0078125 0  0.1875 0.0078125 0  0.1953125 0.0078125 0  0.203125 0.0078125 0  0.2109375 0.0078125 0  0.21875 0.0078125 0  0.2265625 0.0078125 0  0.234375 0.0078125 0  0.2421875 0.0078125 0  0.25 0.0078125 0  0.2578125 0.0078125 0  0.265625 0.0078125 0  0.2734375 0.0078125 0  0.28125 0.0078125 0  0.2890625 0.0078125 0  0.296875 0.0078125 0  0.3046875 0.0078125 0  0.3125 0.0078125 0  0.3203125 0.0078125 0  0.328125 0.0078125 0  0.3359375 0.0078125 0  0.34375 0.0078125 0  0.3515625 0.0078125 0  0.359375 0.0078125 0  0.3671875 0.0078125 0  0.375 0.0078125 0  0.3828125 0.0078125 0  0.390625 0.0078125 0  0.3984375 0.0078125 0  0.40625 0.0078125 0  0.4140625 0.0078125 0  0.421875 0.0078125 0  0.4296875 0.0078125 0  0.4375 0.0078125 0  0.4453125 0.0078125 0  0.453125 0.0078125 0  0.4609375 0.0078125 0  0.46875 0.0078125 0  0.4765625 0.0078125 0  0.484375 0.0078125 0  0.4921875 0.0078125 0  0.5 0.0078125 0  0.5078125 0.0078125 0  0.515625 0.0078125 0  0.5234375 0.0078125 0  0.53125 0.0078125 0  0.5390625 0.0078125 0  0.546875 0.0078125 0  0.5546875 0.0078125 0  0.5625 0.0078125 0  0.5703125 0.0078125 0  0.578125 0.0078125 0  0.5859375 0.0078125 0  0.59375 0.0078125 0  0.6015625 0.0078125 0  0.609375 0.0078125 0  0.6171875 0.0078125 0  0.625 0.0078125 0  0.6328125 0.0078125 0  0.640625 0.0078125 0  0.6484375 0.0078125 0  0.65625 0.0078125 0  0.6640625 0.0078125 0  0.671875 0.0078125 0  0.6796875 0.0078125 0  0.6875 0.0078125 0  0.6953125 0.0078125 0  0.703125 0.0078125 0  0.7109375 0.0078125 0  0.71875 0.0078125 0  0.7265625 0.0078125 0  0.734375 0.0078125 0  0.7421875 0.0078125 0  0.75 0.0078125 0  0.7578125 0.0078125 0  0.765625 0.0078125 0  0.7734375 0.0078125 0  0.78125 0.0078125 0  0.7890625 0.0078125 0  0.796875 0.0078125 0  0.8046875 0.0078125 0  0.8125 0.0078125 0  0.8203125 0.0078125 0  0.828125 0.0078125 0  0.8359375 0.0078125 0  0.84375 0.0078125 0  0.8515625 0.0078125 0  0.859375 0.0078125 0  0.8671875 0.0078125 0  0.875 0.0078125 0  0.8828125 0.0078125 0  0.890625 0.0078125 0  0.8984375 0.0078125 0  0.90625 0.0078125 0  0.9140625 0.0078125 0  0.921875 0.0078125 0  0.9296875 0.0078125 0  0.9375 0.0078125 0  0.9453125 0.0078125 0  0.953125 0.0078125 0  0.9609375 0.0078125 0  0.96875 0.0078125 0  0.9765625 0.0078125 0  0.984375 0.0078125 0  0.9921875 0.0078125 0  1 0.0078125 0  0 0.015625 0  0.0078125 0.015625 0  0.015625 0.015625 0  0.0234375 0.015625 0  0.03125 0.015625 0  0.0390625 0.015625 0  0.046875 0.015625 0  0.0546875 0.015625 0  0.0625 0.015625 0  0.0703125 0.015625 0  0.078125 0.015625 0  0.0859375 0.015625 0  0.09375 0.015625 0  0.1015625 0.015625 0  0.109375 0.015625 0  0.1171875 0.015625 0  0.125 0.015625 0  0.1328125 0.015625 0  0.140625 0.015625 0  0.1484375 0.015625 0  0.15625 0.015625 0  0.1640625 0.015625 0  0.171875 0.015625 0  0.1796875 0.015625 0  0.1875 0.015625 0  0.1953125 0.015625 0  0.203125 0.015625 0  0.2109375 0.015625 0  0.21875 0.015625 0  0.2265625 0.015625 0  0.234375 0.015625 0  0.2421875 0.015625 0  0.25 0.015625 0  0.2578125 0.015625 0  0.265625 0.015625 0  0.2734375 0.015625 0  0.28125 0.015625 0  0.2890625 0.015625 0  0.296875 0.015625 0  0.3046875 0.015625 0  0.3125 0.015625 0  0.3203125 0.015625 0  0.328125 0.015625 0  0.3359375 0.015625 0  0.34375 0.015625 0  0.3515625 0.015625 0  0.359375 0.015625 0  0.3671875 0.015625 0  0.375 0.015625 0  0.3828125 0.015625 0  0.390625 0.015625 0  0.3984375 0.015625 0  0.40625 0.015625 0  0.4140625 0.015625 0  0.421875 0.015625 0  0.4296875 0.015625 0  0.4375 0.015625 0  0.4453125 0.015625 0  0.453125 0.015625 0  0.4609375 0.015625 0  0.46875 0.015625 0  0.4765625 0.015625 0  0.484375 0.015625 0  0.4921875 0.015625 0  0.5 0.015625 0  0.5078125 0.015625 0  0.515625 0.015625 0  0.5234375 0.015625 0  0.53125 0.015625 0  0.5390625 0.015625 0  0.546875 0.015625 0  0.5546875 0.015625 0  0.5625 0.015625 0  0.5703125 0.015625 0  0.578125 0.015625 0  0.5859375 0.015625 0  0.59375 0.015625 0  0.6015625 0.015625 0  0.609375 0.015625 0  0.6171875 0.015625 0  0.625 0.015625 0  0.6328125 0.015625 0  0.640625 0.015625 0  0.6484375 0.015625 0  0.65625 0.015625 0  0.6640625 0.015625 0  0.671875 0.015625 0  0.6796875 0.015625 0  0.6875 0.015625 0  0.6953125 0.015625 0  0.703125 0.015625 0  0.7109375 0.015625 0  0.71875 0.015625 0  0.7265625 0.015625 0  0.734375 0.015625 0  0.7421875 0.015625 0  0.75 0.015625 0  0.7578125 0.015625 0  0.765625 0.015625 0  0.7734375 0.015625 0  0.78125 0.015625 0  0.7890625 0.015625 0  0.796875 0.015625 0  0.8046875 0.015625 0  0.8125 0.015625 0  0.8203125 0.015625 0  0.828125 0.015625 0  0.8359375 0.015625 0  0.84375 0.015625 0  0.8515625 0.015625 0  0.859375 0.015625 0  0.8671875 0.015625 0  0.875 0.015625 0  0.8828125 0.015625 0  0.890625 0.015625 0  0.8984375 0.015625 0  0.90625 0.015625 0  0.9140625 0.015625 0  0.921875 0.015625 0  0.9296875 0.015625 0  0.9375 0.015625 0  0.9453125 0.015625 0  0.953125 0.015625 0  0.9609375 0.015625 0  0.96875 0.015625 0  0.9765625 0.015625 0  0.984375 0.015625 0  0.9921875 0.015625 0  1 0.015625 0  0 0.0234375 0  0.0078125 0.0234375 0  0.015625 0.0234375 0  0.0234375 0.0234375 0  0.03125 0.0234375 0  0.0390625 0.0234375 0  0.046875 0.0234375 0  0.0546875 0.0234375 0  0.0625 0.0234375 0  0.0703125 0.0234375 0  0.078125 0.0234375 0  0.0859375 0.0234375 0  0.09375 0.0234375 0  0.1015625 0.0234375 0  0.109375 0.0234375 0  0.1171875 0.0234375 0  0.125 0.0234375 0  0.1328125 0.0234375 0  0.140625 0.0234375 0  0.1484375 0.0234375 0  0.15625 0.0234375 0  0.1640625 0.0234375 0  0.171875 0.0234375 0  0.1796875 0.0234375 0  0.1875 0.0234375 0  0.1953125 0.0234375 0  0.203125 0.0234375 0  0.2109375 0.0234375 0  0.21875 0.0234375 0  0.2265625 0.0234375 0  0.234375 0.0234375 0  0.2421875 0.0234375 0  0.25 0.0234375 0  0.2578125 0.0234375 0  0.265625 0.0234375 0  0.2734375 0.0234375 0  0.28125 0.0234375 0  0.2890625 0.0234375 0  0.296875 0.0234375 0  0.3046875 0.0234375 0  0.3125 0.0234375 0  0.3203125 0.0234375 0  0.328125 0.0234375 0  0.3359375 0.0234375 0  0.34375 0.0234375 0  0.3515625 0.0234375 0  0.359375 0.0234375 0  0.3671875 0.0234375 0  0.375 0.0234375 0  0.3828125 0.0234375 0  0.390625 0.0234375 0  0.3984375 0.0234375 0  0.40625 0.0234375 0  0.4140625 0.0234375 0  0.421875 0.0234375 0  0.4296875 0.0234375 0  0.4375 0.0234375 0  0.4453125 0.0234375 0  0.453125 0.0234375 0  0.4609375 0.0234375 0  0.46875 0.0234375 0  0.4765625 0.0234375 0  0.484375 0.0234375 0  0.4921875 0.0234375 0  0.5 0.0234375 0  0.5078125 0.0234375 0  0.515625 0.0234375 0  0.5234375 0.0234375 0  0.53125 0.0234375 0  0.5390625 0.0234375 0  0.546875 0.0234375 0  0.5546875 0.0234375 0  0.5625 0.0234375 0  0.5703125 0.0234375 0  0.578125 0.0234375 0  0.5859375 0.0234375 0  0.59375 0.0234375 0  0.6015625 0.0234375 0  0.609375 0.0234375 0  0.6171875 0.0234375 0  0.625 0.0234375 0  0.6328125 0.0234375 0  0.640625 0.0234375 0  0.6484375 0.0234375 0  0.65625 0.0234375 0  0.6640625 0.0234375 0  0.671875 0.0234375 0  0.6796875 0.0234375 0  0.6875 0.0234375 0  0.6953125 0.0234375 0  0.703125 0.0234375 0  0.7109375 0.0234375 0  0.71875 0.0234375 0  0.7265625 0.0234375 0  0.734375 0.0234375 0  0.7421875 0.0234375 0  0.75 0.0234375 0  0.7578125 0.0234375 0  0.765625 0.0234375 0  0.7734375 0.0234375 0  0.78125 0.0234375 0  0.7890625 0.0234375 0  0.796875 0.0234375 0  0.8046875 0.0234375 0  0.8125 0.0234375 0  0.8203125 0.0234375 0  0.828125 0.0234375 0  0.8359375 0.0234375 0  0.84375 0.0234375 0  0.8515625 0.0234375 0  0.859375 0.0234375 0  0.8671
[...]
<PointData  Scalars="u_sol"> 
<DataArray  type="Float64"  Name="u_sol"  format="ascii">1.2933274934931534e-06  -9.1099151876600139e-06  -2.0284223133076910e-05  -2.2108724492973544e-05  -1.7160083781682585e-05  -6.8221223239588879e-06  7.2432768894556064e-06  2.3486024231525107e-05  4.0331742139230302e-05  5.6353769199853627e-05  7.0409438697215419e-05  8.1756290023445778e-05  9.0097188362416635e-05  9.5557855200185089e-05  9.8611658163322896e-05  9.9977419417547319e-05  1.0051382422634588e-04  1.0112712034945453e-04  1.0269767226683410e-04  1.0602443091903650e-04  1.1178184433952494e-04  1.2048505318613178e-04  1.3246715801052645e-04  1.4787244201791767e-04  1.6668530371391732e-04  1.8878287239679578e-04  2.1401012124877449e-04  2.4230567668349104e-04  2.7374106306228048e-04  3.0854499661478414e-04  3.4719909222906794e-04  3.9025818898628261e-04  4.3827750199134714e-04  4.9174083261034434e-04  5.5110149481375325e-04  6.1651114715175978e-04  6.8803832227864071e-04  7.6545301470467187e-04  8.4833619393573530e-04  9.3617897699734378e-04  1.0273503319956226e-03  1.1211142655437086e-03  1.2154409302690579e-03  1.3069875820722031e-03  1.3935629077834657e-03  1.4716783229918829e-03  1.5349781577903929e-03  1.5790125294454717e-03  1.6008561138446482e-03  1.5959332923499200e-03  1.5603917094373649e-03  1.4908553902870988e-03  1.3847408775122308e-03  1.2403972845641158e-03  1.0572446296287169e-03  8.3585633095643007e-04  5.7800174406091832e-04  2.8664889274254587e-04  -3.4065164038414660e-05  -3.7888735178285822e-04  -7.4152992219086750e-04  -1.1147321233160575e-03  -1.4904827279581419e-03  -1.8595969764940827e-03  -2.2141198270219866e-03  -2.5429084476686929e-03  -2.8339780137588352e-03  -3.0861672025818947e-03  -3.2870759036649315e-03  -3.4206521816372345e-03  -3.4796842821455030e-03  -3.4550166516825079e-03  -3.3408212360677573e-03  -3.1332206852104261e-03  -2.8316693489341409e-03  -2.4391692972220566e-03  -1.9627543748326108e-03  -1.4136316639873066e-03  -8.0691068406775468e-04  -1.6148337271054661e-04  5.0334845919948750e-04  1.1541719152911966e-03  1.7579906606509756e-03  2.3252541346072664e-03  2.8469192812939554e-03  3.2646864125123664e-03  3.5728690324777169e-03  3.7816239813834433e-03  3.8826656091751695e-03  3.8844897611758243e-03  3.7946786488617930e-03  3.6272009725448555e-03  3.3931145873989620e-03  3.1165504307107180e-03  2.8136528756146644e-03  2.4855824636664131e-03  2.1508299025395656e-03  1.8213557107344329e-03  1.5050545976801450e-03  1.2117952037687082e-03  9.4654905279513348e-04  7.1345864700375226e-04  5.1425376617554033e-04  3.4888376824666211e-04  2.1575379654461421e-04  1.1208362531241089e-04  3.4264649934859908e-05  -2.1689359663881822e-05  -5.9686047951753148e-05  -8.3530907651110191e-05  -9.6674199996943692e-05  -1.0198302634904974e-04  -1.0181635286223156e-04  -9.8002635458915849e-05  -9.1929370785598792e-05  -8.4635068915553364e-05  -7.6857861726052249e-05  -6.9107691141419772e-05  -6.1725823523908798e-05  -5.4912559884977836e-05  -4.8738759695988341e-05  -4.3143426806650294e-05  -3.7909860019735954e-05  -3.2649701127630622e-05  -2.6775169056818868e-05  -1.9630938745076472e-05  -1.0618646299631162e-05  -1.3031745127007173e-06  1.1080057506885522e-06  -8.7344699782499557e-07  -5.4391788169392890e-06  5.6029448660792419e-05  2.3751769037414237e-04  5.4274736336123238e-04  9.5651720812477397e-04  1.4527042287118827e-03  1.9998873585605043e-03  2.5649647429797804e-03  3.1165726416733791e-03  3.6279877959579073e-03  4.0792845062327023e-03  4.4585260655716124e-03  4.7619528597403855e-03  4.9932818631841774e-03  5.1623369731235080e-03  5.2832665324708010e-03  5.3725836741400227e-03  5.4472164329354821e-03  5.5226961517531809e-03  5.6115834228796608e-03  5.7222254798917158e-03  5.8579447522525618e-03  6.0167696383266007e-03  6.1917634909402497e-03  6.3719480928998229e-03  6.5435608173866370e-03  6.6914010399574189e-03  6.8001051678683701e-03  6.8546261293622717e-03  6.8399133597343148e-03  6.7405182409977886e-03  6.5396185583222917e-03  6.2182500527192246e-03  5.7546997683682322e-03  5.1245656400076512e-03  4.3000423761436982e-03  3.2523723980181314e-03  1.9523874013122429e-03  3.6943789247701229e-04  -1.5266816551359585e-03  -3.7686574427010645e-03  -6.3827907727456818e-03  -9.3857546561119387e-03  -1.2789947506632813e-02  -1.6598663658757791e-02  -2.0804017356879687e-02  -2.5391564592699669e-02  -3.0338249631844685e-02  -3.5608255710760636e-02  -4.1155638012241522e-02  -4.6925009295587655e-02  -5.2852856883891339e-02  -5.8868941567846292e-02  -6.4897858362140765e-02  -7.0860607272003689e-02  -7.6676100368203937e-02  -8.2262536409308293e-02  -8.7538607646565861e-02  -9.2424533739809703e-02  -9.6842932853139302e-02  -1.0071961398401560e-01  -1.0398418592937690e-01  -1.0657125701525025e-01  -1.0841947578042167e-01  -1.0947742483271643e-01  -1.0969935076569672e-01  -1.0903009953456728e-01  -1.0743632295136010e-01  -1.0490334242672446e-01  -1.0141973513178089e-01  -9.6991246794760538e-02  -9.1637122903384605e-02  -8.5393672609913290e-02  -7.8314596532245984e-02  -7.0472127761958270e-02  -6.1957179265804262e-02  -5.2878939366699525e-02  -4.3363642467321592e-02  -3.3551847968359562e-02  -2.3596613848587702e-02  -1.3649493585759951e-02  -3.8758408384320753e-03  5.5110817787373248e-03  1.4346969976937277e-02  2.2556043828794392e-02  3.0007695258007238e-02  3.6570902665794255e-02  4.2175789933618285e-02  4.6766403705497644e-02  5.0319911659151381e-02  5.2837340821420081e-02  5.4349466263499374e-02  5.4895487116546439e-02  5.4551840369433238e-02  5.3428421726564188e-02  5.1610518516464733e-02  4.9197802614662951e-02  4.6304818313642325e-02  4.3041834147034164e-02  3.9522877096711699e-02  3.5857441840269434e-02  3.2148569062231354e-02  2.8489323273543452e-02  2.4959810284958351e-02  2.1624973257254720e-02  1.8533379190019780e-02  1.5717033172858417e-02  1.3192258940381323e-02  1.0961931577136421e-02  9.0179731178190257e-03  7.3440002972961068e-03  5.9181254176674967e-03  4.7152330062692040e-03  3.7090082136378992e-03  2.8735803383437733e-03  2.1845618780274713e-03  1.6197272256262009e-03  1.1595347785733274e-03  7.8747214983573095e-04  4.9030026042534767e-04  2.5821960453186572e-04  8.4832398730072509e-05  -3.3271765719887298e-05  -9.7709734011616078e-05  -1.1073621836140382e-04  -8.0338741485740689e-05  -2.7563197523271678e-05  4.5355785078891325e-06  -8.5913035371553762e-06  3.9386065306975802e-05  2.3035591024599253e-04  6.0738506275241936e-04  1.1746031301414859e-03  1.9096156700456326e-03  2.7724500140603272e-03  3.7137872438327561e-03  4.6812950122387294e-03  5.6251722534105082e-03  6.5026709502101704e-03  7.2813841730668136e-03  7.9410954970240682e-03  8.4741695457726026e-03  8.8846295728592390e-03  9.1861910156975073e-03  9.3995785062859442e-03  9.5494546545791398e-03  9.6612406745474246e-03  9.7580795908469593e-03  9.8581356616401043e-03  9.9724328024790032e-03  1.0103450812533565e-02  1.0244604765135600e-02  1.0380707384201375e-02  1.0489300071976460e-02  1.0542723988197774e-02  1.0510105485275256e-02  1.0358544114846822e-02  1.0054184354011241e-02  9.5625734887105733e-03  8.8475416103443640e-03  7.8699589348301402e-03  6.5859751663927260e-03  4.9489315454129875e-03  2.9092159896209405e-03  4.1379012900238162e-04  -2.5976122558530003e-03  -6.1844901858741927e-03  -1.0392659175111653e-02  -1.5257592106044647e-02  -2.0799331980517109e-02  -2.7029956694295577e-02  -3.3951908671399612e-02  -4.1544384413352849e-02  -4.9766936754623917e-02  -5.8560468903152099e-02  -6.7844544109939051e-02  -7.7520793722204551e-02  -8.7478340877599703e-02  -9.7595803617287716e-02  -1.0774531307384277e-01  -1.1779621483332357e-01  -1.2761857509182126e-01  -1.3708615729257723e-01  -1.4607880684338295e-01  -1.5448420123576440e-01  -1.6219900534260387e-01  -1.6912950998162779e-01  -1.7519185774960813e-01  -1.8031197902061002e-01  -1.8442531988994576e-01  -1.8747658967361622e-01  -1.8941911773811351e-01  -1.9021550874406470e-01  -1.8983171708264202e-01  -1.8824062683197262e-01  -1.8544622395497895e-01  -1.8145469543103795e-01  -1.7627099593145004e-01  -1.6991805225696313e-01  -1.6242641726305185e-01  -1.5384040709515895e-01  -1.4421695762432379e-01  -1.3362753439032421e-01  -1.2215857681626104e-01  -1.0991216798006320e-01  -9.7006082367612087e-02  -8.3573367894109213e-02  -6.9761708976352144e-02  -5.5731870286833331e-02  -4.1660493278453004e-02  -2.7721645777463583e-02  -1.4051845267025617e-02  -8.2668054519145588e-04  1.1718712773788095e-02  2.3448483551544767e-02  3.4254815127582244e-02  4.3999512148323927e-02  5.2585740346453490e-02  5.9935228623548824e-02  6.5997164926798565e-02  7.0740976925871044e-02  7.4173215141781865e-02  7.6297683911087086e-02  7.7134303433065807e-02  7.6788257405448701e-02  7.5361506109098364e-02  7.2949935517240966e-02  6.9683747948567520e-02  6.5702014559266511e-02  6.1156493486400954e-02  5.6206195620957945e-02  5.1011220186059227e-02  4.5726382559707610e-02  4.0494180684331207e-02  3.5438489220392597e-02  3.0659822747137380e-02  2.6232789871224408e-02  2.2205592011933006e-02  1.8601922525996826e-02  1.5424494544903029e-02  1.2659339266535416e-02  1.0280673440727753e-02  8.2553582176821353e-03  6.5462691056699454e-03  5.1151237891626997e-03  3.9250042100102888e-03  2.9419432652896867e-03  2.1360176922457985e-03  1.4821791478044494e-03  9.6066682268040621e-04  5.5700705662065011e-04  2.6133135265885433e-04  6.6553347760371076e-05  -3.4882406051149534e-05  -5.7142504952442337e-05  -2.5988622528795395e-05  3.9473936641201368e-06  -1.7647711636087449e-05  8.8146411445754589e-05  4.1871451034141500e-04  9.8772468107495375e-04  1.7875950096020038e-03  2.7864164600122899e-03  3.9337218672507437e-03  5.1682466826964840e-03  6.4255443896762167e-03  7.6446727764052577e-03  8.7735564791449373e-03  9.7727304437600360e-03  1.0617339673645535e-02  1.1297447043250402e-02  1.1816849867662719e-02  1.2190707335171991e-02  1.2442314416526327e-02  1.2599361563225598e-02  1.2690011513099687e-02  1.2739031432921174e-02  1.2764339561311193e-02  1.2774196255442977e-02  1.2765324492612057e-02  1.2722348613891184e-02  1.2618393502506910e-02  1.2416630768443522e-02  1.2072385551500898e-02  1.1535677231282862e-02  1.0753748749181674e-02  9.6716609034604144e-03  8.2310910071672575e-03  6.3704541328643716e-03  4.0255664651332639e-03  1.1273514098828958e-03  -2.4055107021913021e-03  -6.6562310196083595e-03  -1.1695032814609057e-02  -1.7573179554910924e-02  -2.4331060761296545e-02  -3.2004650181847366e-02  -4.0607301663055755e-02  -5.0125442941973353e-02  -6.0513384284594948e-02  -7.1692333287671495e-02  -8.3558276228763620e-02  -9.5981811112953605e-02  -1.0881251026729141e-01  -1.2188576994846914e-01  -1.3502964201197459e-01  -1.4807143726294217e-01  -1.6084411552831585e-01  -1.7319090145432248e-01  -1.8496896091308340e-01  -1.9605166583948161e-01  -2.0632966408118492e-01  -2.1571089802593629e-01  -2.2411982179462353e-01  -2.3149605218128036e-01  -2.3779267819509695e-01  -2.4297441674384943e-01  -2.4701575674298951e-01  -2.4989921188107733e-01  -2.5161368574640330e-01  -2.5215325084718054e-01  -2.5151570204766255e-01  -2.4970611976193866e-01  -2.4674038640728790e-01  -2.4262355246149109e-01  -2.3736144980029600e-01  -2.3097010787594571e-01  -2.2346624799781536e-01  -2.1487492644638911e-01  -2.0522774517359957e-01  -1.9456617029197085e-01  -1.8294251208197831e-01  -1.7042194230874710e-01  -1.5708380862505300e-01  -1.4302279629759465e-01  -1.2834950119109215e-01  -1.1319026282740537e-01  -9.7686133488428917e-02  -8.1987443125028064e-02  -6.6251514958090882e-02  -5.0655779399595730e-02  -3.5365760897781776e-02  -2.0520009008142930e-02  -6.2974929114905098e-03  7.1447094688480524e-03  1.9693160826480597e-02  3.1232977983547770e-02  4.1672001810862017e-02  5.0932770818310595e-02  5.8959251167317379e-02  6.5703695705634751e-02  7.1150195928656179e-02  7.5285181198395279e-02  7.8059774003271312e-02  7.9502227647901672e-02  7.9685663769023654e-02  7.8668529471002696e-02  7.6542683912243628e-02  7.3425172916686987e-02  6.9456801420856279e-02  6.4800757292082858e-02  5.9635858976556759e-02  5.4148219695377052e-02  4.8521039919545504e-02  4.2924151858459748e-02  3.7504822689380365e-02  3.2381244159542820e-02  2.7639302506785188e-02  2.3332836261237885e-02  1.9486778751744309e-02  1.6101951549833501e-02  1.3160537636004664e-02  1.0632259453662647e-02  8.4799355501182835e-03  6.6629902827484624e-03  5.1407440568951249e-03  3.8752003871602107e-03  2.8326737422123822e-03  1.9849466687915586e-03  1.3096790993356905e-03  7.9000409792440293e-04  4.1300458450880628e-04  1.6689718065520035e-04  3.6297371878928220e-05  -3.2531564639141652e-06  -2.3003733904588475e-07  -2.5757400166068461e-05  1.2999257005117277e-04  5.8825991546975127e-04  1.3354075141981711e-03  2.3451844885421253e-03  3.5714525285064293e-03  4.9514255942488122e-03  6.4125808117071730e-03  7.8806555407171207e-03  9.2869186666974853e-03  1.0573862211793206e-02  1.1698898600808971e-02  1.2636002047881892e-02  1.3375473229744816e-02  1.3922154796986559e-02  1.4292461395526045e-02  1.4510606601558399e-02  1.4604324883503073e-02  1.4600374084387318e-02  1.4520241167533185e-02  1.4376008834292789e-02  1.4167185020804036e-02  1.3878874306632873e-02  1.3480996497552231e-02  1.2929144911185946e-02  1.2166940868040219e-02  1.1129191749920020e-02  9.7444956598289108e-03  7.9360311580142576e-03  5.6240309976103870e-03  2.7261757203109211e-03  -8.5008617965988788e-04  -5.2084159769728690e-03  -1.0445623100279225e-02  -1.6637076327716615e-02  -2.3849055491166952e-02  -3.2142945933672076e-02  -4.1559701317385692e-02  -5.2104866697000547e-02  -6.3741609515835435e-02  -7.6395898040087701e-02  -8.9954720909057997e-02  -1.0426754520874582e-01  -1.1915437459609361e-01  -1.3441375356789170e-01  -1.4983387553017327e-01  -1.6520256242478876e-01  -1.8031681989590578e-01  -1.9499049889337744e-01  -2.0905982910138196e-01  -2.2238655760041875e-01  -2.3485894208703018e-01  -2.4639086251742900e-01  -2.5691964838959219e-01  -2.6640300587019267e-01  -2.7481550481415357e-01  -2.8214495932954542e-01  -2.8838896846826501e-01  -2.9355178931958320e-01  -2.9764164511356372e-01  -3.0066851429201630e-01  -3.0264239990146541e-01  -3.0357209095657756e-01  -3.0346431460181966e-01  -3.0232373214969477e-01  -3.0015148780058964e-01  -2.9693939109184930e-01  -2.9268055937507176e-01  -2.8737060567540562e-01  -2.8100390961670990e-01  -2.7357866303866024e-01  -2.6509623740853117e-01  -2.5556452912556304e-01  -2.4499927237027050e-01  -2.3342678694992955e-01  -2.2088609196747594e-01  -2.0743128594217525e-01  -1.9313348224946733e-01  -1.7808229685044738e-01  -1.6238647573650367e-01  -1.4617320401765768e-01  -1.2958729605544997e-01  -1.1278966205053401e-01  -9.5946948217290856e-02  -7.9232557755344143e-02  -6.2826239174534754e-02  -4.6889101663490078e-02  -3.1574852268991073e-02  -1.7022580797974231e-02  -3.3439206113543710e-03  9.3671194845807680e-03  2.1039255336097469e-02  3.1616563929480333e-02  4.1061094391592334e-02  4.9338232772653833e-02  5.6427795720668882e-02  6.2325919371407468e-02  6.6972155053750440e-02  7.0323539634093435e-02  7.2399005386945631e-02  7.3214395470859672e-02  7.2806862967816119e-02  7.1246498498685876e-02  6.8635755822299277e-02  6.5111426494345370e-02  6.0840511814466341e-02  5.6011970654173515e-02  5.0824969098705187e-02  4.5475418224603610e-02  4.0142952009523010e-02  3.4980458812753475e-02  3.0107487546349839e-02  2.5607980622992160e-02  2.1531909610331287e-02  1.7899945316280981e-02  1.4709265363519583e-02  1.1939506444336776e-02  9.5598772012197106e-03  7.5341759434608187e-03  5.8241429466471895e-03  4.3930473360766662e-03  3.2078728551401146e-03  2.2407140952418370e-03  1.4692856710876460e-03  8.7641760640176983e-04  4.4852167373967463e-04  1.7238045588197174e-04  3.0798036457395993e-05  -6.6593923149749705e-06  -3.2759706715186178e-05  1.6523427924271388e-04  7.3739769018896662e-04  1.6486174060395444e-03  2.8517458353773430e-03  4.2821707322858249e-03  5.8611307314544517e-03  7.5027515208638870e-03  9.1225543205187727e-03  1.0645145116503933e-02  1.2009912584117346e-02  1.3174221678696264e-02  1.4114153959201715e-02  1.4823176693545197e-02  1.5309254511773422e-02  1.5590937064615321e-02  1.5692777396574060e-02  1.5640477086296574e-02  1.5455981639067969e-02  1.5152276929409965e-02  1.4729465019557594e-02  1.4171785685242867e-02  1.3445412939840636e-02  1.2498502393359420e-02  1.1263209474298329e-02  9.6587336461207707e-03  7.5941589884172865e-03  4.9729512576726026e-03  1.6944720121452970e-03  -2.3549752012199318e-03  -7.2961182814328413e-03  -1.3235071366900098e-02  -2.0262018287139395e-02  -2.8466077462946326e-02  -3.7926132993624496e-02  -4.8684383394899271e-02  -6.0737433868121415e-02  -7.4036051362342009e-02  -8.8481459772607615e-02  -1.0392473090973255e-01  -1.2017243779577974e-01  -1.3699754169394543e-01  -1.5415301840346943e-01  -1.7138593716839801e-01  -1.8845189092544654e-01  -2.0512702965396101e-01  -2.2121704522067970e-01  -2.3656229684750035e-01  -2.5103956176470565e-01  -2.6456074759252007e-01  -2.7706939019171345e-01  -2.8853569534122664e-01  -2.9895092053498890e-01  -3.0832171430020117e-01  -3.1666488737602555e-01  -3.2400288778664327e-01  -3.3036012237877926e-01  -3.3576013951285805e-01  -3.4022361343902652e-01  -3.4376702119936170e-01  -3.4640188164568780e-01  -3.4813442975767606e-01  -3.4896556753888935e-01  -3.4889100354295932e-01  -3.4790075735209192e-01  -3.4597960123932803e-01  -3.4311203196950685e-01  -3.3928098028461862e-01  -3.3446710356358356e-01  -3.2865093234453469e-01  -3.2181309241000128e-01  -3.1393637386720408e-01  -3.0500698830123973e-01  -2.9501699583147084e-01  -2.8396656419054966e-01  -2.7186688780752555e-01  -2.5874314717946201e-01  -2.4463764259602377e-01  -2.2961269195222009e-01  -2.1375305021595459e-01  -1.9716757298392479e-01  -1.7998932214700208e-01  -1.6237347962922516e-01  -1.4449594353119338e-01  -1.2654711691207818e-01  -1.0872238536792418e-01  -9.1217781689052355e-02  -7.4217833731066732e-02  -5.7887946314945711e-02  -4.2368428086124899e-02  -2.7767999760242485e-02  -1.4164963972647568e-02  -1.6081644033028315e-03  9.8756317051139873e-03  2.0278161577596467e-02  2.9598477239733932e-02  3.7834620731135873e-02  4.4999699162505485e-02  5.1063954941265137e-02  5.5964240091842969e-02  5.9672210877715084e-02  6.2168234063729164e-02  6.3442776343042823e-02  6.3515554978487196e-02  6.2442278375337439e-02  6.0319710998632030e-02  5.7285276392346651e-02  5.3510694943442787e-02  4.9190400533939568e-02  4.4526748074063018e-02  3.9714503939851743e-02  3.4927332720673082e-02  3.0308225204421370e-02  2.5964774098701425e-02  2.1968954082192224e-02  1.8360524622789063e-02  1.5152945960575686e-02  1.2338989262969290e-02  9.8976709541348535e-03  7.8004705737950977e-03  6.0150647764858987e-03  4.5092327620570938e-03  3.2536510326515609e-03  2.2237816725273894e-03  1.4009458490133022e-03  7.7246663932389360e-04  3.3063068582862457e-04  7.0482638296228664e-05  -1.4212140381231645e-05  -3.9135040649546070e-05  1.9701246279121062e-04  8.7519360041339014e-04  1.9422374562524586e-03  3.3289432856255779e-03  4.9486074580590185e-03  6.7024615063148415e-03  8.4882735484234414e-03  1.0209992308998970e-02  1.1785956275769852e-02  1.3154321339318136e-02  1.4275246135091683e-02  1.5130111093611261e-02  1.5718470938155142e-02  1.6053537743874673e-02  1.6156851017116929e-02  1.6052699176522040e-02  1.5762479277716256e-02  1.5298707011943777e-02  1.4660563292151568e-02  1.3829765540652315e-02  1.2767066175763647e-02  1.1411794847949163e-02  9.6833006336406700e-03  7.4835270159016509e-03  4.7027970245537131e-03  1.2236225825261800e-03  -3.0852905663005486e-03  -8.3598575643317758e-03  -1.4717845161951749e-02  -2.2267700744169200e-02  -3.1120611907014827e-02  -4.1369298608845882e-02  -5.3062946626996475e-02  -6.6201192385878738e-02  -8.0729429025444929e-02  -9.6530518060413253e-02  -1.1342638693630505e-01  -1.3118693190530209e-01  -1.4954385408306123e-01  -1.6820807923348491e-01  -1.86