<?xml version="1.0"?>
<VTKFile type="UnstructuredGrid"  version="0.1"  >
<UnstructuredGrid>
<Piece  NumberOfPoints="16641" NumberOfCells="16384">
<Points>
<DataArray  type="Float64"  NumberOfComponents="3"  format="ascii">0 0 0  0.0078125 0 0  0.015625 0 0  0.0234375 0 0  0.03125 0 0  0.0390625 0 0  0.046875 0 0  0.0546875 0 0  0.0625 0 0  0.0703125 0 0  0.078125 0 0  0.0859375 0 0  0.09375 0 0  0.1015625 0 0  0.109375 0 0  0.1171875 0 0  0.125 0 0  0.1328125 0 0  0.140625 0 0  0.1484375 0 0  0.15625 0 0  0.1640625 0 0  0.171875 0 0  0.1796875 0 0  0.1875 0 0  0.1953125 0 0  0.203125 0 0  0.2109375 0 0  0.21875 0 0  0.2265625 0 0  0.234375 0 0  0.2421875 0 0  0.25 0 0  0.2578125 0 0  0.265625 0 0  0.2734375 0 0  0.28125 0 0  0.2890625 0 0  0.296875 0 0  0.3046875 0 0  0.3125 0 0  0.3203125 0 0  0.328125 0 0  0.3359375 0 0  0.34375 0 0  0.3515625 0 0  0.359375 0 0  0.3671875 0 0  0.375 0 0  0.3828125 0 0  0.390625 0 0  0.3984375 0 0  0.40625 0 0  0.4140625 0 0  0.421875 0 0  0.4296875 0 0  0.4375 0 0  0.4453125 0 0  0.453125 0 0  0.4609375 0 0  0.46875 0 0  0.4765625 0 0  0.484375 0 0  0.4921875 0 0  0.5 0 0  0.5078125 0 0  0.515625 0 0  0.5234375 0 0  0.53125 0 0  0.5390625 0 0  0.546875 0 0  0.5546875 0 0  0.5625 0 0  0.5703125 0 0  0.578125 0 0  0.5859375 0 0  0.59375 0 0  0.6015625 0 0  0.609375 0 0  0.6171875 0 0  0.625 0 0  0.6328125 0 0  0.640625 0 0  0.6484375 0 0  0.65625 0 0  0.6640625 0 0  0.671875 0 0  0.6796875 0 0  0.6875 0 0  0.6953125 0 0  0.703125 0 0  0.7109375 0 0  0.71875 0 0  0.7265625 0 0  0.734375 0 0  0.7421875 0 0  0.75 0 0  0.7578125 0 0  0.765625 0 0  0.7734375 0 0  0.78125 0 0  0.7890625 0 0  0.796875 0 0  0.8046875 0 0  0.8125 0 0  0.8203125 0 0  0.828125 0 0  0.8359375 0 0  0.84375 0 0  0.8515625 0 0  0.859375 0 0  0.8671875 0 0  0.875 0 0  0.8828125 0 0  0.890625 0 0  0.8984375 0 0  0.90625 0 0  0.9140625 0 0  0.921875 0 0  0.9296875 0 0  0.9375 0 0  0.9453125 0 0  0.953125 0 0  0.9609375 0 0  0.96875 0 0  0.9765625 0 0  0.984375 0 0  0.9921875 0 0  1 0 0  0 0.0078125 0  0.0078125 0.0078125 0  0.015625 0.0078125 0  0.0234375 0.0078125 0  0.03125 0.0078125 0  0.0390625 0.0078125 0  0.046875 0.0078125 0  0.0546875 0.0078125 0  0.0625 0.0078125 0  0.0703125 0.0078125 0  0.078125 0.0078125 0  0.0859375 0.0078125 0  0.09375 0.0078125 0  0.1015625 0.0078125 0  0.109375 0.0078125 0  0.1171875 0.0078125 0  0.125 0.0078125 0  0.1328125 0.0078125 0  0.140625 0.0078125 0  0.1484375 0.0078125 0  0.15625 0.0078125 0  0.1640625 0.0078125 0  0.171875 0.0078125 0  0.1796875 0.0078125 0  0.1875 0.0078125 0  0.1953125 0.0078125 0  0.203125 0.0078125 0  0.2109375 0.0078125 0  0.21875 0.0078125 0  0.2265625 0.0078125 0  0.234375 0.0078125 0  0.2421875 0.0078125 0  0.25 0.0078125 0  0.2578125 0.0078125 0  0.265625 0.0078125 0  0.2734375 0.0078125 0  0.28125 0.0078125 0  0.2890625 0.0078125 0  0.296875 0.0078125 0  0.3046875 0.0078125 0  0.3125 0.0078125 0  0.3203125 0.0078125 0  0.328125 0.0078125 0  0.3359375 0.0078125 0  0.34375 0.0078125 0  0.3515625 0.0078125 0  0.359375 0.0078125 0  0.3671875 0.0078125 0  0.375 0.0078125 0  0.3828125 0.0078125 0  0.390625 0.0078125 0  0.3984375 0.0078125 0  0.40625 0.0078125 0  0.4140625 0.0078125 0  0.421875 0.0078125 0  0.4296875 0.0078125 0  0.4375 0.0078125 0  0.4453125 0.0078125 0  0.453125 0.0078125 0  0.4609375 0.0078125 0  0.46875 0.0078125 0  0.4765625 0.0078125 0  0.484375 0.0078125 0  0.4921875 0.0078125 0  0.5 0.0078125 0  0.5078125 0.0078125 0  0.515625 0.0078125 0  0.5234375 0.0078125 0  0.53125 0.0078125 0  0.5390625 0.0078125 0  0.546875 0.0078125 0  0.5546875 0.0078125 0  0.5625 0.0078125 0  0.5703125 0.0078125 0  0.578125 0.0078125 0  0.5859375 0.0078125 0  0.59375 0.0078125 0  0.6015625 0.0078125 0  0.609375 0.0078125 0  0.6171875 0.0078125 0  0.625 0.0078125 0  0.6328125 0.0078125 0  0.640625 0.0078125 0  0.6484375 0.0078125 0  0.65625 0.0078125 0  0.6640625 0.0078125 0  0.671875 0.0078125 0  0.6796875 0.0078125 0  0.6875 0.0078125 0  0.6953125 0.0078125 0  0.703125 0.0078125 0  0.7109375 0.0078125 0  0.71875 0.0078125 0  0.7265625 0.0078125 0  0.734375 0.0078125 0  0.7421875 0.0078125 0  0.75 0.0078125 0  0.7578125 0.0078125 0  0.765625 0.0078125 0  0.7734375 0.0078125 0  0.78125 0.0078125 0  0.7890625 0.0078125 0  0.796875 0.0078125 0  0.8046875 0.0078125 0  0.8125 0.0078125 0  0.8203125 0.0078125 0  0.828125 0.0078125 0  0.8359375 0.0078125 0  0.84375 0.0078125 0  0.8515625 0.0078125 0  0.859375 0.0078125 0  0.8671875 0.0078125 0  0.875 0.0078125 0  0.8828125 0.0078125 0  0.890625 0.0078125 0  0.8984375 0.0078125 0  0.90625 0.0078125 0  0.9140625 0.0078125 0  0.921875 0.0078125 0  0.9296875 0.0078125 0  0.9375 0.0078125 0  0.9453125 0.0078125 0  0.953125 0.0078125 0  0.9609375 0.0078125 0  0.96875 0.0078125 0  0.9765625 0.0078125 0  0.984375 0.0078125 0  0.9921875 0.0078125 0  1 0.0078125 0  0 0.015625 0  0.0078125 0.015625 0  0.015625 0.015625 0  0.0234375 0.015625 0  0.03125 0.015625 0  0.0390625 0.015625 0  0.046875 0.015625 0  0.0546875 0.015625 0  0.0625 0.015625 0  0.0703125 0.015625 0  0.078125 0.015625 0  0.0859375 0.015625 0  0.09375 0.015625 0  0.1015625 0.015625 0  0.109375 0.015625 0  0.1171875 0.015625 0  0.125 0.015625 0  0.1328125 0.015625 0  0.140625 0.015625 0  0.1484375 0.015625 0  0.15625 0.015625 0  0.1640625 0.015625 0  0.171875 0.015625 0  0.1796875 0.015625 0  0.1875 0.015625 0  0.1953125 0.015625 0  0.203125 0.015625 0  0.2109375 0.015625 0  0.21875 0.015625 0  0.2265625 0.015625 0  0.234375 0.015625 0  0.2421875 0.015625 0  0.25 0.015625 0  0.2578125 0.015625 0  0.265625 0.015625 0  0.2734375 0.015625 0  0.28125 0.015625 0  0.2890625 0.015625 0  0.296875 0.015625 0  0.3046875 0.015625 0  0.3125 0.015625 0  0.3203125 0.015625 0  0.328125 0.015625 0  0.3359375 0.015625 0  0.34375 0.015625 0  0.3515625 0.015625 0  0.359375 0.015625 0  0.3671875 0.015625 0  0.375 0.015625 0  0.3828125 0.015625 0  0.390625 0.015625 0  0.3984375 0.015625 0  0.40625 0.015625 0  0.4140625 0.015625 0  0.421875 0.015625 0  0.4296875 0.015625 0  0.4375 0.015625 0  0.4453125 0.015625 0  0.453125 0.015625 0  0.4609375 0.015625 0  0.46875 0.015625 0  0.4765625 0.015625 0  0.484375 0.015625 0  0.4921875 0.015625 0  0.5 0.015625 0  0.5078125 0.015625 0  0.515625 0.015625 0  0.5234375 0.015625 0  0.53125 0.015625 0  0.5390625 0.015625 0  0.546875 0.015625 0  0.5546875 0.015625 0  0.5625 0.015625 0  0.5703125 0.015625 0  0.578125 0.015625 0  0.5859375 0.015625 0  0.59375 0.015625 0  0.6015625 0.015625 0  0.609375 0.015625 0  0.6171875 0.015625 0  0.625 0.015625 0  0.6328125 0.015625 0  0.640625 0.015625 0  0.6484375 0.015625 0  0.65625 0.015625 0  0.6640625 0.015625 0  0.671875 0.015625 0  0.6796875 0.015625 0  0.6875 0.015625 0  0.6953125 0.015625 0  0.703125 0.015625 0  0.7109375 0.015625 0  0.71875 0.015625 0  0.7265625 0.015625 0  0.734375 0.015625 0  0.7421875 0.015625 0  0.75 0.015625 0  0.7578125 0.015625 0  0.765625 0.015625 0  0.7734375 0.015625 0  0.78125 0.015625 0  0.7890625 0.015625 0  0.796875 0.015625 0  0.8046875 0.015625 0  0.8125 0.015625 0  0.8203125 0.015625 0  0.828125 0.015625 0  0.8359375 0.015625 0  0.84375 0.015625 0  0.8515625 0.015625 0  0.859375 0.015625 0  0.8671875 0.015625 0  0.875 0.015625 0  0.8828125 0.015625 0  0.890625 0.015625 0  0.8984375 0.015625 0  0.90625 0.015625 0  0.9140625 0.015625 0  0.921875 0.015625 0  0.9296875 0.015625 0  0.9375 0.015625 0  0.9453125 0.015625 0  0.953125 0.015625 0  0.9609375 0.015625 0  0.96875 0.015625 0  0.9765625 0.015625 0  0.984375 0.015625 0  0.9921875 0.015625 0  1 0.015625 0  0 0.0234375 0  0.0078125 0.0234375 0  0.015625 0.0234375 0  0.0234375 0.0234375 0  0.03125 0.0234375 0  0.0390625 0.0234375 0  0.046875 0.0234375 0  0.0546875 0.0234375 0  0.0625 0.0234375 0  0.0703125 0.0234375 0  0.078125 0.0234375 0  0.0859375 0.0234375 0  0.09375 0.0234375 0  0.1015625 0.0234375 0  0.109375 0.0234375 0  0.1171875 0.0234375 0  0.125 0.0234375 0  0.1328125 0.0234375 0  0.140625 0.0234375 0  0.1484375 0.0234375 0  0.15625 0.0234375 0  0.1640625 0.0234375 0  0.171875 0.0234375 0  0.1796875 0.0234375 0  0.1875 0.0234375 0  0.1953125 0.0234375 0  0.203125 0.0234375 0  0.2109375 0.0234375 0  0.21875 0.0234375 0  0.2265625 0.0234375 0  0.234375 0.0234375 0  0.2421875 0.0234375 0  0.25 0.0234375 0  0.2578125 0.0234375 0  0.265625 0.0234375 0  0.2734375 0.0234375 0  0.28125 0.0234375 0  0.2890625 0.0234375 0  0.296875 0.0234375 0  0.3046875 0.0234375 0  0.3125 0.0234375 0  0.3203125 0.0234375 0  0.328125 0.0234375 0  0.3359375 0.0234375 0  0.34375 0.0234375 0  0.3515625 0.0234375 0  0.359375 0.0234375 0  0.3671875 0.0234375 0  0.375 0.0234375 0  0.3828125 0.0234375 0  0.390625 0.0234375 0  0.3984375 0.0234375 0  0.40625 0.0234375 0  0.4140625 0.0234375 0  0.421875 0.0234375 0  0.4296875 0.0234375 0  0.4375 0.0234375 0  0.4453125 0.0234375 0  0.453125 0.0234375 0  0.4609375 0.0234375 0  0.46875 0.0234375 0  0.4765625 0.0234375 0  0.484375 0.0234375 0  0.4921875 0.0234375 0  0.5 0.0234375 0  0.5078125 0.0234375 0  0.515625 0.0234375 0  0.5234375 0.0234375 0  0.53125 0.0234375 0  0.5390625 0.0234375 0  0.546875 0.0234375 0  0.5546875 0.0234375 0  0.5625 0.0234375 0  0.5703125 0.0234375 0  0.578125 0.0234375 0  0.5859375 0.0234375 0  0.59375 0.0234375 0  0.6015625 0.0234375 0  0.609375 0.0234375 0  0.6171875 0.0234375 0  0.625 0.0234375 0  0.6328125 0.0234375 0  0.640625 0.0234375 0  0.6484375 0.0234375 0  0.65625 0.0234375 0  0.6640625 0.0234375 0  0.671875 0.0234375 0  0.6796875 0.0234375 0  0.6875 0.0234375 0  0.6953125 0.0234375 0  0.703125 0.0234375 0  0.7109375 0.0234375 0  0.71875 0.0234375 0  0.7265625 0.0234375 0  0.734375 0.0234375 0  0.7421875 0.0234375 0  0.75 0.0234375 0  0.7578125 0.0234375 0  0.765625 0.0234375 0  0.7734375 0.0234375 0  0.78125 0.0234375 0  0.7890625 0.0234375 0  0.796875 0.0234375 0  0.8046875 0.0234375 0  0.8125 0.0234375 0  0.8203125 0.0234375 0  0.828125 0.0234375 0  0.8359375 0.0234375 0  0.84375 0.0234375 0  0.8515625 0.0234375 0  0.859375 0.0234375 0  0.8671
[...]
<PointData  Scalars="v_sol"> 
<DataArray  type="Float64"  Name="v_sol"  format="ascii">-1.2866788496392739e-06  1.0106657655603177e-06  9.5786311036825281e-06  2.0473349628606030e-05  3.0764575102945557e-05  3.9174701244545153e-05  4.5035927505640323e-05  4.8053824584205281e-05  4.8237547121036789e-05  4.5872271909953101e-05  4.1466558561190267e-05  3.5676587551600589e-05  2.9218208266954555e-05  2.2782484329042549e-05  1.6966622768642414e-05  1.2226999052774173e-05  8.8542374183734186e-06  6.9675233070933944e-06  6.5228103418276636e-06  7.3275765697340387e-06  9.0704922308491452e-06  1.1348806560688679e-05  1.3712819117829880e-05  1.5719090305930885e-05  1.6977087090311302e-05  1.7196590699424666e-05  1.6187276565402981e-05  1.3901988385363634e-05  1.0406936434909972e-05  5.6866438659682951e-06  -2.9107992349716193e-07  -7.5047655431735983e-06  -1.6107708817071241e-05  -2.6344136897080186e-05  -3.8744837929354362e-05  -5.3318482323984348e-05  -7.0323386306726121e-05  -8.9041238682306413e-05  -1.1032322166430384e-04  -1.3443615829268233e-04  -1.6157778892291296e-04  -1.9258812442952635e-04  -2.2504199134664197e-04  -2.5911354046573667e-04  -2.9444871238695595e-04  -3.2981945271137953e-04  -3.6418173076619510e-04  -3.9811733656485262e-04  -4.3002812022066859e-04  -4.5890533342045212e-04  -4.8380028344799240e-04  -5.0383836419508560e-04  -5.1823937166056429e-04  -5.2634460837125809e-04  -5.2763188778420528e-04  -5.2172244253181975e-04  -5.0837854982756095e-04  -4.8749479652856586e-04  -4.5908534087738787e-04  -4.2326996225554374e-04  -3.8026264870760453e-04  -3.3036136883042572e-04  -2.7395495982128503e-04  -2.1154960241961477e-04  -1.4331787593963927e-04  -7.1900285378204330e-05  4.8063265895543058e-06  8.9266197838818795e-05  1.7289373152401473e-04  2.5882163809020189e-04  3.4450431867445849e-04  4.2904991960313841e-04  5.1078910440365347e-04  5.8821527253690321e-04  6.5967115025248658e-04  7.2352241777912769e-04  7.7816051999703790e-04  8.2208412769965581e-04  8.5397717852611740e-04  8.7274571254226290e-04  8.7783815943302324e-04  8.7277121830758896e-04  8.4816387676210040e-04  7.9536850502563770e-04  7.4095051812452276e-04  6.8727331220688086e-04  6.0937390802478814e-04  5.2656372831236893e-04  4.3693552243807490e-04  3.4399231111537044e-04  2.5017287699274622e-04  1.5762168656765268e-04  6.9779252019917004e-05  -1.6904842560419728e-05  -8.8103609030959528e-05  -1.5026786903751311e-04  -2.0822731853546866e-04  -2.5295926813651720e-04  -2.8832042585026131e-04  -3.1316185558466259e-04  -3.2780111730797292e-04  -3.3296140647147334e-04  -3.2949182178634151e-04  -3.1859453137832096e-04  -3.0164854057724227e-04  -2.8015661565326783e-04  -2.5560576119867598e-04  -2.2945488606376557e-04  -2.0296574894249249e-04  -1.7709203330242731e-04  -1.5262996561037380e-04  -1.3008730835670701e-04  -1.0976988331219403e-04  -9.1828795872943953e-05  -7.6246001404507005e-05  -6.2874057495742455e-05  -5.1523340736941715e-05  -4.1978373008686835e-05  -3.3972142144677586e-05  -2.7227889823953773e-05  -2.1449280374553165e-05  -1.6334994103309961e-05  -1.1601287987553560e-05  -7.0291117055334941e-06  -2.5581790505248258e-06  1.5590886987868999e-06  4.4369782404381294e-06  4.5962925653417629e-06  1.1148274806628120e-06  9.1006171209184768e-06  5.1527436177665148e-06  -4.4153634861399585e-05  -1.0345077846399614e-04  -1.5827850418751233e-04  -2.0266611202138568e-04  -2.3343480705110805e-04  -2.4910999181896898e-04  -2.4978338698931842e-04  -2.3700810672908174e-04  -2.1353298267737022e-04  -1.8288706449123637e-04  -1.4889702340391443e-04  -1.1522872063000204e-04  -8.5021254312255551e-05  -6.0646860743787391e-05  -4.3593898241790038e-05  -3.4450410205965215e-05  -3.2955409563543343e-05  -3.8087735557138578e-05  -4.8203441637512543e-05  -6.1192112599328671e-05  -7.4698365064527011e-05  -8.6391003054175531e-05  -9.4239609649667978e-05  -9.6747414466258068e-05  -9.3021517575868627e-05  -8.2887449730920766e-05  -6.6637141947997823e-05  -4.4452960095602949e-05  -1.6392864217540096e-05  1.7721458309258446e-05  5.8652695538638769e-05  1.0758535828438607e-04  1.6632385865069057e-04  2.3591262266230449e-04  3.1757216082684833e-04  4.1013481215241567e-04  5.1559663313859884e-04  6.3510805428995264e-04  7.6968362056792079e-04  9.2035155132926926e-04  1.0816062139647736e-03  1.2516474253149077e-03  1.4282697110852519e-03  1.6079590644065313e-03  1.7877269118978961e-03  1.9639734861089083e-03  2.1319961476213250e-03  2.2868171026214847e-03  2.4237114909597536e-03  2.5382288478273639e-03  2.6262979688896414e-03  2.6843537075426226e-03  2.7094185128132805e-03  2.6991424558875212e-03  2.6518040594058203e-03  2.5662808477765978e-03  2.4420013962807778e-03  2.2788921847955329e-03  2.0773321776426435e-03  1.8381291662514770e-03  1.5625127830183006e-03  1.2521867156834855e-03  9.0990160866618697e-04  5.3918867601798596e-04  1.4028785824699548e-04  -2.8780326157622373e-04  -7.3475217656627319e-04  -1.1960896893159871e-03  -1.6647836145711988e-03  -2.1334867245911588e-03  -2.5935373522799595e-03  -3.0354329777360304e-03  -3.4488260864815492e-03  -3.8228785044371514e-03  -4.1466256553321984e-03  -4.4095133532563091e-03  -4.6020590718859247e-03  -4.7167626911784029e-03  -4.7486906173616330e-03  -4.6908820372005451e-03  -4.5363647205992385e-03  -4.2873200707849116e-03  -3.9745859073035588e-03  -3.6071852449723022e-03  -3.1701902567061583e-03  -2.6921955683795553e-03  -2.1877168058535490e-03  -1.6720966684560963e-03  -1.1601734422107834e-03  -6.6544136104207190e-04  -1.9908945680471355e-04  2.2986605802750360e-04  6.0178517837959134e-04  9.2274817083089840e-04  1.1997237611967614e-03  1.4174553801976229e-03  1.5801652129990057e-03  1.6888327159483847e-03  1.7453309006899740e-03  1.7540349074375450e-03  1.7202350916077909e-03  1.6504733672678665e-03  1.5521051627863966e-03  1.4328604743554683e-03  1.3003627090710488e-03  1.1616785243860855e-03  1.0229124011287354e-03  8.8891384707624906e-04  7.6327406116898371e-04  6.4832528620070468e-04  5.4535758620708852e-04  4.5484007747274954e-04  3.7652286945433141e-04  3.0959964263773342e-04  2.5302957464043175e-04  2.0562371575975013e-04  1.6601451018887577e-04  1.3275808969670858e-04  1.0432237990918692e-04  7.9131791436672192e-05  5.5674042828810135e-05  3.2732800100876399e-05  9.8437045153950585e-06  -1.1835828883285935e-05  -2.7899985851632956e-05  -2.7605024871964166e-05  -1.3433515609047150e-06  2.0543162816988434e-05  -5.2813219868709282e-05  -2.4127779745006955e-04  -4.6404645330620206e-04  -6.7322915292930584e-04  -8.4411716962751356e-04  -9.6296004617331345e-04  -1.0234275574634774e-03  -1.0256068611283417e-03  -9.7527076040339214e-04  -8.8273886036500395e-04  -7.6131392514710368e-04  -6.2552036387554034e-04  -4.8942077244652174e-04  -3.6522986623756032e-04  -2.6234221590877587e-04  -1.8679244810403806e-04  -1.4108138768260313e-04  -1.2428638989822182e-04  -1.3239365701004361e-04  -1.5876619294159563e-04  -1.9487024650349037e-04  -2.3114519520629211e-04  -2.5803017500896134e-04  -2.6708409110535943e-04  -2.5190835439717075e-04  -2.0856194719477442e-04  -1.3520479371987267e-04  -3.1525023000462816e-05  1.0213779957497958e-04  2.6626115497210086e-04  4.6302654196289991e-04  6.9624424642923612e-04  9.6999799777124833e-04  1.2869560109159308e-03  1.6532468691843733e-03  2.0749606438250127e-03  2.5567666489797773e-03  3.0946726964945059e-03  3.6831753738293276e-03  4.3192322490696348e-03  4.9965507120842247e-03  5.7044087975722559e-03  6.4284468038732293e-03  7.1522545385974620e-03  7.8575350136184802e-03  8.5259958443761382e-03  9.1403832644655920e-03  9.6815185319719128e-03  1.0131729242259935e-02  1.0475836887579259e-02  1.0701390793582656e-02  1.0798898598985935e-02  1.0761889244091258e-02  1.0586793107958532e-02  1.0272674893697830e-02  9.8208757949829785e-03  9.2346165300372929e-03  8.5186107702095414e-03  7.6787295688179819e-03  6.7217486746585205e-03  5.6551990093770144e-03  4.4873393114843617e-03  3.2272359172812646e-03  1.8845104984322471e-03  4.6913531171163890e-04  -1.0114267123944769e-03  -2.5405008548329546e-03  -4.0992034714198945e-03  -5.6724368375226713e-03  -7.2409425948408582e-03  -8.7832491163193777e-03  -1.0275639051181127e-02  -1.1692194436120119e-02  -1.3005289483214690e-02  -1.4186183654581845e-02  -1.5205958902459342e-02  -1.6036686545901208e-02  -1.6652860315777875e-02  -1.7032905858508481e-02  -1.7160365811107324e-02  -1.7024576914185782e-02  -1.6610628121277941e-02  -1.5920366392433320e-02  -1.4992965672100254e-02  -1.3858649682388044e-02  -1.2531705643478717e-02  -1.1041341317945845e-02  -9.4316705856927786e-03  -7.7457218270041792e-03  -6.0261161600246175e-03  -4.3131051826576609e-03  -2.6439151173864735e-03  -1.0493361850020871e-03  4.3585452410034126e-04  1.7760629179603955e-03  2.9546790194932742e-03  3.9741546979284821e-03  4.8149612626919970e-03  5.4691661324514293e-03  5.9354791453895247e-03  6.2161077320352824e-03  6.3199578676132774e-03  6.2619164426443823e-03  6.0625297903016129e-03  5.7469238929317859e-03  5.3430422568945708e-03  4.8796241900264199e-03  4.3839962772490486e-03  3.8802318423673344e-03  3.3881348374054264e-03  2.9226540248770872e-03  2.4939488934810346e-03  2.1078224806333314e-03  1.7664125495340070e-03  1.4693713643803453e-03  1.2143276746696093e-03  9.9736194621104831e-04  8.1372792082654445e-04  6.5795189777078159e-04  5.2409332897453446e-04  4.0602513736758309e-04  2.9794165282486152e-04  1.9531551402636081e-04  9.6577015219253707e-05  5.9099128398591629e-06  -6.2330318668279828e-05  -7.8869200214549577e-05  -1.0829456993475725e-05  2.4073936518027883e-05  -2.1567516874126838e-04  -6.0662654432869743e-04  -1.0463164521234702e-03  -1.4575694935613022e-03  -1.7931223124233113e-03  -2.0250258170407226e-03  -2.1403237613487314e-03  -2.1391486489456039e-03  -2.0329452851222071e-03  -1.8420216729786083e-03  -1.5924449721446785e-03  -1.3126620835616496e-03  -1.0302932585261324e-03  -7.6945811462664410e-04  -5.4883590670691551e-04  -3.8049146198422328e-04  -2.6941153200372384e-04  -2.1359320669923204e-04  -2.0456947642793046e-04  -2.2848376692035472e-04  -2.6738915492088589e-04  -3.0119530316452417e-04  -3.0985965021624489e-04  -2.7544945561218582e-04  -1.8381070641125869e-04  -2.5588139842987541e-05  2.0411755935751264e-04  5.0745860359692908e-04  8.8631948415759303e-04  1.3432001150288082e-03  1.8814384594827817e-03  2.5080325678978623e-03  3.2360558968676694e-03  4.0771341910152041e-03  5.0336375947792420e-03  6.1051740464697496e-03  7.2914942701521436e-03  8.5837742323515397e-03  9.9649147451601836e-03  1.1411429814715218e-02  1.2895748190388913e-02  1.4388546308104792e-02  1.5851145597303107e-02  1.7242059004861105e-02  1.8520880686407629e-02  1.9648919496372687e-02  2.0590514608519378e-02  2.1316256377268930e-02  2.1802722391148999e-02  2.2033628056631897e-02  2.1999843977896321e-02  2.1698868425881035e-02  2.1134008170956332e-02  2.0313344486126990e-02  1.9248623089419523e-02  1.7954175616563931e-02  1.6445956688659048e-02  1.4740751635846882e-02  1.2855585490172834e-02  1.0807343940761825e-02  8.6126032072773480e-03  6.2876534558324740e-03  3.8486668415110624e-03  1.3119538369726308e-03  -1.3069811633849445e-03  -3.9858847468979839e-03  -6.7016935300094668e-03  -9.4391323974793804e-03  -1.2171830813504956e-02  -1.4873575457138011e-02  -1.7513671651082200e-02  -2.0058114885613931e-02  -2.2469371500538730e-02  -2.4706892003392100e-02  -2.6727923982939071e-02  -2.8488721132604675e-02  -2.9946159579294206e-02  -3.1059648881414804e-02  -3.1793153225195589e-02  -3.2116948725351299e-02  -3.2009249748535896e-02  -3.1466565705914232e-02  -3.0497736668824882e-02  -2.9101730586617407e-02  -2.7312778083636399e-02  -2.5199159974140566e-02  -2.2789322390416571e-02  -2.0141128677553820e-02  -1.7318783962053792e-02  -1.4384028758796515e-02  -1.1398863833336038e-02  -8.4206403796495289e-03  -5.5050236015841744e-03  -2.6892628330320539e-03  -2.5306388123670201e-05  2.4295908523324513e-03  4.6358483007887938e-03  6.5761106487294222e-03  8.2224995072527722e-03  9.5493459100566089e-03  1.0542363770580284e-02  1.1195812798168569e-02  1.1516084323924387e-02  1.1522971453844164e-02  1.1249383816942906e-02  1.0739451486592637e-02  1.0044997092689181e-02  9.2210799029745025e-03  8.3214057754730352e-03  7.3942586481488548e-03  6.4798331857736473e-03  5.6088006969326658e-03  4.8022179970385048e-03  4.0725744698311061e-03  3.4250957437182475e-03  2.8593811261177311e-03  2.3711517073493373e-03  1.9527902190063754e-03  1.5945698470624693e-03  1.2853155925031771e-03  1.0131823080071298e-03  7.6682749838716724e-04  5.3727720692267405e-04  3.2092266431815980e-04  1.2404658659573683e-04  -3.1018749361422347e-05  -9.8685329919957776e-05  -1.9817149028329824e-05  2.3660821944907811e-05  -4.7860959492600794e-04  -1.1350534760956050e-03  -1.8339088365980445e-03  -2.4764597379553248e-03  -2.9947273729476176e-03  -3.3464245104089432e-03  -3.5121403898681243e-03  -3.4931081235525328e-03  -3.3082404567028245e-03  -2.9900084328844966e-03  -2.5794513598740251e-03  -2.1209262105090065e-03  -1.6572279005814079e-03  -1.2255455924527453e-03  -8.5449955466785732e-04  -5.6230475569761409e-04  -3.5591419224966859e-04  -2.3107729657042680e-04  -1.7318648127656545e-04  -1.5855730355467473e-04  -1.5708132699468241e-04  -1.3516419811199107e-04  -5.9198359852749715e-05  1.0092806909109956e-04  3.6896662533264567e-04  7.6145423622912139e-04  1.2886518286507368e-03  1.9555894877694483e-03  2.7645312918681019e-03  3.7238256107944862e-03  4.8477387932365891e-03  6.1475984283499534e-03  7.6295636842138971e-03  9.3028668948752398e-03  1.1166441039434144e-02  1.3206736140601123e-02  1.5398367086359081e-02  1.7712460601231623e-02  2.0106168986102273e-02  2.2523228772973847e-02  2.4901877294576578e-02  2.7174084564424949e-02  2.9273245929826313e-02  3.1135472494880159e-02  3.2703820412560224e-02  3.3931553668253636e-02  3.4784132169178160e-02  3.5239470833642282e-02  3.5287990746039236e-02  3.4931306189630459e-02  3.4180601976795816e-02  3.3054548820098228e-02  3.1577163813780222e-02  2.9775783210509461e-02  2.7679285089031100e-02  2.5316642874161872e-02  2.2715841487273361e-02  1.9903153320705625e-02  1.6902747195205597e-02  1.3736592027167257e-02  1.0424612651305927e-02  6.9850652725859021e-03  3.4351622079098190e-03  -2.0789762975147877e-04  -3.9252331165961730e-03  -7.6989261684670008e-03  -1.1513821635748019e-02  -1.5343820100008107e-02  -1.9163871039855715e-02  -2.2942186104950826e-02  -2.6642796525240459e-02  -3.0223858103378860e-02  -3.3638181433584144e-02  -3.6833429289504289e-02  -3.9753083751855718e-02  -4.2337890272819367e-02  -4.4527905009090034e-02  -4.6265078080259606e-02  -4.7496276561286181e-02  -4.8176768353061977e-02  -4.8274443524546642e-02  -4.7769875347924047e-02  -4.6659024594711745e-02  -4.4967431148442073e-02  -4.2728667359870035e-02  -3.9984129162218121e-02  -3.6812349272040974e-02  -3.3282144955202514e-02  -2.9474982350224034e-02  -2.5471782654872478e-02  -2.1351574017550598e-02  -1.7188654577593342e-02  -1.3047064505437515e-02  -8.9914300727148358e-03  -5.0597023337516792e-03  -1.2982093210719867e-03  2.2212753795042717e-03  5.4424014745032097e-03  8.3237216040142042e-03  1.0822772129620224e-02  1.2894467522867287e-02  1.4503934158525073e-02  1.5629742776873512e-02  1.6268525969171558e-02  1.6438468292750009e-02  1.6179968965760762e-02  1.5553104461195870e-02  1.4632325705185948e-02  1.3499272730775818e-02  1.2235181695616533e-02  1.0914177541273563e-02  9.5985836151174248e-03  8.3365487010868215e-03  7.1616836154015555e-03  6.0940597531602683e-03  5.1426373945543660e-03  4.3072727482879282e-03  3.5814631851842820e-03  2.9534681552311486e-03  2.4080293098963771e-03  1.9279948862102978e-03  1.4962463157892048e-03  1.0985309151718115e-03  7.2759589473382017e-04  3.8905113299332839e-04  1.0918485044686213e-04  -5.4549540572731525e-05  -2.5879479997166475e-05  2.1260261277325157e-05  -8.2897786640631285e-04  -1.8128988115740275e-03  -2.8104132618699622e-03  -3.7058143105550660e-03  -4.4132752745138599e-03  -4.8781107521851906e-03  -5.0764913787436534e-03  -5.0133081628027125e-03  -4.7178532177852388e-03  -4.2376121624269208e-03  -3.6309723903092334e-03  -2.9598304706286989e-03  -2.2829312497758074e-03  -1.6504966039229553e-03  -1.1003436487193601e-03  -6.5546516326077506e-04  -3.2294574345103288e-04  -9.3973910080865828e-05  5.5391626406254834e-05  1.6146338780657072e-04  2.6978805936698640e-04  4.3069495567110803e-04  6.9392476605747739e-04  1.1036210813733475e-03  1.6952047884788480e-03  2.4924835419418666e-03  3.5087054871358395e-03  4.7566452737980575e-03  6.2499968852019533e-03  7.9961340003931441e-03  1.0005250277585061e-02  1.2288275880221059e-02  1.4844577064693457e-02  1.7659722308092179e-02  2.0711990805118107e-02  2.3960166286185039e-02  2.7342642925661364e-02  3.0780868874745290e-02  3.4185503761833894e-02  3.7460687997462001e-02  4.0507990707446727e-02  4.3235524638681987e-02  4.5562132475619743e-02  4.7422522863120382e-02  4.8769766702478998e-02  4.9576380696292117e-02  4.9833410108301071e-02  4.9548420957022353e-02  4.8742391631020329e-02  4.7446385313486647e-02  4.5698139106448148e-02  4.3538975543632480e-02  4.1011159572942893e-02  3.8155830580778517e-02  3.5011508263056268e-02  3.1613138888279581e-02  2.7991610104779137e-02  2.4173653414098134e-02  2.0182052871997928e-02  1.6036089105506707e-02  1.1752159971856050e-02  7.3445347883207166e-03  2.8262069264475805e-03  -1.7902089512407862e-03  -6.4921518949077528e-03  -1.1265525679870917e-02  -1.6089891884447177e-02  -2.0944035762169431e-02  -2.5799880970158468e-02  -3.0624406964763415e-02  -3.5377186294215671e-02  -4.0010580944743829e-02  -4.4469037373403450e-02  -4.8689454151000032e-02  -5.2601866363373023e-02  -5.6130960936849189e-02  -5.9198345293518785e-02  -6.1725663902526338e-02  -6.3638502008903253e-02  -6.4870878995829453e-02  -6.5369658475152262e-02  -6.5100187684494215e-02  -6.4050850365894571e-02  -6.2230485973830289e-02  -5.9675965966162960e-02  -5.6451437465915133e-02  -5.2634185854194777e-02  -4.8323523315318209e-02  -4.3623781566569701e-02  -3.8642952297034752e-02  -3.3484194825688582e-02  -2.8241331239682824e-02  -2.2996492224788466e-02  -1.7814661955754714e-02  -1.2755842130824077e-02  -7.8602838579098135e-03  -3.1578784359395018e-03  1.2851196147864821e-03  5.4052900627399487e-03  9.1440064184373070e-03  1.2440532063948252e-02  1.5231376353832734e-02  1.7459668266040694e-02  1.9084399544182819e-02  2.0088210306230158e-02  2.0483084061099763e-02  2.0312415876327716e-02  1.9648129606110121e-02  1.8583614193452083e-02  1.7223933204265171e-02  1.5675234438885081e-02  1.4035441882348905e-02  1.2387550743509376e-02  1.0796044578946083e-02  9.3063967943478286e-03  7.9463551109436210e-03  6.7281827232045554e-03  5.6520301791846807e-03  4.7089765787039096e-03  3.8830877588032948e-03  3.1539465167026229e-03  2.4995899604957762e-03  1.9001848515167970e-03  1.3431300539290037e-03  8.3001956027558416e-04  3.8598343087700173e-04  7.2022147459811732e-05  -2.8611786031671617e-05  1.8082539338401953e-05  -1.2567034772693246e-03  -2.6286569021910042e-03  -3.9640855947384746e-03  -5.1304371455080187e-03  -6.0259053824966704e-03  -6.5861355653047534e-03  -6.7864652325987825e-03  -6.6397139150754497e-03  -6.1900160486828863e-03  -5.5038784783777907e-03  -4.6600332472223858e-03  -3.7395607095031471e-03  -2.8173928568522738e-03  -1.9557133713125809e-03  -1.1994380908026561e-03  -5.7345491536480461e-04  -8.1498998649203925e-05  2.9416098164752777e-04  5.9047323144003488e-04  8.6073920238068525e-04  1.1698756975358938e-03  1.5878582297912005e-03  2.1831057489172081e-03  3.0145224647006507e-03  4.1259872050001378e-03  5.5519769497107000e-03  7.3175457240410970e-03  9.4332271163246485e-03  1.1909561433519384e-02  1.4754635535301033e-02  1.7966514709127704e-02  2.1535354455112614e-02  2.5439219056686561e-02  2.9628316191030006e-02  3.4026258478083604e-02  3.8535351477052143e-02  4.3039363042056841e-02  4.7409921363502763e-02  5.1516425737399632e-02  5.