<?xml version="1.0"?>
<VTKFile type="UnstructuredGrid"  version="0.1"  >
<UnstructuredGrid>
<Piece  NumberOfPoints="289" NumberOfCells="256">
<Points>
<DataArray  type="Float64"  NumberOfComponents="3"  format="ascii">0 0 0  0.0625 0 0  0.125 0 0  0.1875 0 0  0.25 0 0  0.3125 0 0  0.375 0 0  0.4375 0 0  0.5 0 0  0.5625 0 0  0.625 0 0  0.6875 0 0  0.75 0 0  0.8125 0 0  0.875 0 0  0.9375 0 0  1 0 0  0 0.0625 0  0.0625 0.0625 0  0.125 0.0625 0  0.1875 0.0625 0  0.25 0.0625 0  0.3125 0.0625 0  0.375 0.0625 0  0.4375 0.0625 0  0.5 0.0625 0  0.5625 0.0625 0  0.625 0.0625 0  0.6875 0.0625 0  0.75 0.0625 0  0.8125 0.0625 0  0.875 0.0625 0  0.9375 0.0625 0  1 0.0625 0  0 0.125 0  0.0625 0.125 0  0.125 0.125 0  0.1875 0.125 0  0.25 0.125 0  0.3125 0.125 0  0.375 0.125 0  0.4375 0.125 0  0.5 0.125 0  0.5625 0.125 0  0.625 0.125 0  0.6875 0.125 0  0.75 0.125 0  0.8125 0.125 0  0.875 0.125 0  0.9375 0.125 0  1 0.125 0  0 0.1875 0  0.0625 0.1875 0  0.125 0.1875 0  0.1875 0.1875 0  0.25 0.1875 0  0.3125 0.1875 0  0.375 0.1875 0  0.4375 0.1875 0  0.5 0.1875 0  0.5625 0.1875 0  0.625 0.1875 0  0.6875 0.1875 0  0.75 0.1875 0  0.8125 0.1875 0  0.875 0.1875 0  0.9375 0.1875 0  1 0.1875 0  0 0.25 0  0.0625 0.25 0  0.125 0.25 0  0.1875 0.25 0  0.25 0.25 0  0.3125 0.25 0  0.375 0.25 0  0.4375 0.25 0  0.5 0.25 0  0.5625 0.25 0  0.625 0.25 0  0.6875 0.25 0  0.75 0.25 0  0.8125 0.25 0  0.875 0.25 0  0.9375 0.25 0  1 0.25 0  0 0.3125 0  0.0625 0.3125 0  0.125 0.3125 0  0.1875 0.3125 0  0.25 0.3125 0  0.3125 0.3125 0  0.375 0.3125 0  0.4375 0.3125 0  0.5 0.3125 0  0.5625 0.3125 0  0.625 0.3125 0  0.6875 0.3125 0  0.75 0.3125 0  0.8125 0.3125 0  0.875 0.3125 0  0.9375 0.3125 0  1 0.3125 0  0 0.375 0  0.0625 0.375 0  0.125 0.375 0  0.1875 0.375 0  0.25 0.375 0  0.3125 0.375 0  0.375 0.375 0  0.4375 0.375 0  0.5 0.375 0  0.5625 0.375 0  0.625 0.375 0  0.6875 0.375 0  0.75 0.375 0  0.8125 0.375 0  0.875 0.375 0  0.9375 0.375 0  1 0.375 0  0 0.4375 0  0.0625 0.4375 0  0.125 0.4375 0  0.1875 0.4375 0  0.25 0.4375 0  0.3125 0.4375 0  0.375 0.4375 0  0.4375 0.4375 0  0.5 0.4375 0  0.5625 0.4375 0  0.625 0.4375 0  0.6875 0.4375 0  0.75 0.4375 0  0.8125 0.4375 0  0.875 0.4375 0  0.9375 0.4375 0  1 0.4375 0  0 0.5 0  0.0625 0.5 0  0.125 0.5 0  0.1875 0.5 0  0.25 0.5 0  0.3125 0.5 0  0.375 0.5 0  0.4375 0.5 0  0.5 0.5 0  0.5625 0.5 0  0.625 0.5 0  0.6875 0.5 0  0.75 0.5 0  0.8125 0.5 0  0.875 0.5 0  0.9375 0.5 0  1 0.5 0  0 0.5625 0  0.0625 0.5625 0  0.125 0.5625 0  0.1875 0.5625 0  0.25 0.5625 0  0.3125 0.5625 0  0.375 0.5625 0  0.4375 0.5625 0  0.5 0.5625 0  0.5625 0.5625 0  0.625 0.5625 0  0.6875 0.5625 0  0.75 0.5625 0  0.8125 0.5625 0  0.875 0.5625 0  0.9375 0.5625 0  1 0.5625 0  0 0.625 0  0.0625 0.625 0  0.125 0.625 0  0.1875 0.625 0  0.25 0.625 0  0.3125 0.625 0  0.375 0.625 0  0.4375 0.625 0  0.5 0.625 0  0.5625 0.625 0  0.625 0.625 0  0.6875 0.625 0  0.75 0.625 0  0.8125 0.625 0  0.875 0.625 0  0.9375 0.625 0  1 0.625 0  0 0.6875 0  0.0625 0.6875 0  0.125 0.6875 0  0.1875 0.6875 0  0.25 0.6875 0  0.3125 0.6875 0  0.375 0.6875 0  0.4375 0.6875 0  0.5 0.6875 0  0.5625 0.6875 0  0.625 0.6875 0  0.6875 0.6875 0  0.75 0.6875 0  0.8125 0.6875 0  0.875 0.6875 0  0.9375 0.6875 0  1 0.6875 0  0 0.75 0  0.0625 0.75 0  0.125 0.75 0  0.1875 0.75 0  0.25 0.75 0  0.3125 0.75 0  0.375 0.75 0  0.4375 0.75 0  0.5 0.75 0  0.5625 0.75 0  0.625 0.75 0  0.6875 0.75 0  0.75 0.75 0  0.8125 0.75 0  0.875 0.75 0  0.9375 0.75 0  1 0.75 0  0 0.8125 0  0.0625 0.8125 0  0.125 0.8125 0  0.1875 0.8125 0  0.25 0.8125 0  0.3125 0.8125 0  0.375 0.8125 0  0.4375 0.8125 0  0.5 0.8125 0  0.5625 0.8125 0  0.625 0.8125 0  0.6875 0.8125 0  0.75 0.8125 0  0.8125 0.8125 0  0.875 0.8125 0  0.9375 0.8125 0  1 0.8125 0  0 0.875 0  0.0625 0.875 0  0.125 0.875 0  0.1875 0.875 0  0.25 0.875 0  0.3125 0.875 0  0.375 0.875 0  0.4375 0.875 0  0.5 0.875 0  0.5625 0.875 0  0.625 0.875 0  0.6875 0.875 0  0.75 0.875 0  0.8125 0.875 0  0.875 0.875 0  0.9375 0.875 0  1 0.875 0  0 0.9375 0  0.0625 0.9375 0  0.125 0.9375 0  0.1875 0.9375 0  0.25 0.9375 0  0.3125 0.9375 0  0.375 0.9375 0  0.4375 0.9375 0  0.5 0.9375 0  0.5625 0.9375 0  0.625 0.9375 0  0.6875 0.9375 0  0.75 0.9375 0  0.8125 0.9375 0  0.875 0.9375 0  0.9375 0.9375 0  1 0.9375 0  0 1 0  0.0625 1 0  0.125 1 0  0.1875 1 0  0.25 1 0  0.3125 1 0  0.375 1 0  0.4375 1 0  0.5 1 0  0.5625 1 0  0.625 1 0  0.6875 1 0  0.75 1 0  0.8125 1 0  0.875 1 0  0.9375 1 0  1 1 0  </DataArray>
</Points>
<Cells>
<DataArray  type="UInt32"  Name="connectivity"  format="ascii">0 1 18 17  1 2 19 18  2 3 20 19  3 4 21 20  4 5 22 21  5 6 23 22  6 7 24 23  7 8 25 24  8 9 26 25  9 10 27 26  10 11 28 27  11 12 29 28  12 13 30 29  13 14 31 30  14 15 32 31  15 16 33 32  17 18 35 34  18 19 36 35  19 20 37 36  20 21 38 37  21 22 39 38  22 23 40 39  23 24 41 40  24 25 42 41  25 26 43 42  26 27 44 43  27 28 45 44  28 29 46 45  29 30 47 46  30 31 48 47  31 32 49 48  32 33 50 49  34 35 52 51  35 36 53 52  36 37 54 53  37 38 55 54  38 39 56 55  39 40 57 56  40 41 58 57  41 42 59 58  42 43 60 59  43 44 61 60  44 45 62 61  45 46 63 62  46 47 64 63  47 48 65 64  48 49 66 65  49 50 67 66  51 52 69 68  52 53 70 69  53 54 71 70  54 55 72 71  55 56 73 72  56 57 74 73  57 58 75 74  58 59 76 75  59 60 77 76  60 61 78 77  61 62 79 78  62 63 80 79  63 64 81 80  64 65 82 81  65 66 83 82  66 67 84 83  68 69 86 85  69 70 87 86  70 71 88 87  71 72 89 88  72 73 90 89  73 74 91 90  74 75 92 91  75 76 93 92  76 77 94 93  77 78 95 94  78 79 96 95  79 80 97 96  80 81 98 97  81 82 99 98  82 83 100 99  83 84 101 100  85 86 103 102  86 87 104 103  87 88 105 104  88 89 106 105  89 90 107 106  90 91 108 107  91 92 109 108  92 93 110 109  93 94 111 110  94 95 112 111  95 96 113 112  96 97 114 113  97 98 115 114  98 99 116 115  99 100 117 116  100 101 118 117  102 103 120 119  103 104 121 120  104 105 122 121  105 106 123 122  106 107 124 123  107 108 125 124  108 109 126 125  109 110 127 126  110 111 128 127  111 112 129 128  112 113 130 129  113 114 131 130  114 115 132 131  115 116 133 132  116 117 134 133  117 118 135 134  119 120 137 136  120 121 138 137  121 122 139 138  122 123 140 139  123 124 141 140  124 125 142 141  125 126 143 142  126 127 144 143  127 128 145 144  128 129 146 145  129 130 147 146  130 131 148 147  131 132 149 148  132 133 150 149  133 134 151 150  134 135 152 151  136 137 154 153  137 138 155 154  138 139 156 155  139 140 157 156  140 141 158 157  141 142 159 158  142 143 160 159  143 144 161 160  144 145 162 161  145 146 163 162  146 147 164 163  147 148 165 164  148 149 166 165  149 150 167 166  150 151 168 167  151 152 169 168  153 154 171 170  154 155 172 171  155 156 173 172  156 157 174 173  157 158 175 174  158 159 176 175  159 160 177 176  160 161 178 177  161 162 179 178  162 163 180 179  163 164 181 180  164 165 182 181  165 166 183 182  166 167 184 183  167 168 185 184  168 169 186 185  170 171 188 187  171 172 189 188  172 173 190 189  173 174 191 190  174 175 192 191  175 176 193 192  176 177 194 193  177 178 195 194  178 179 196 195  179 180 197 196  180 181 198 197  181 182 199 198  182 183 200 199  183 184 201 200  184 185 202 201  185 186 203 202  187 188 205 204  188 189 206 205  189 190 207 206  190 191 208 207  191 192 209 208  192 193 210 209  193 194 211 210  194 195 212 211  195 196 213 212  196 197 214 213  197 198 215 214  198 199 216 215  199 200 217 216  200 201 218 217  201 202 219 218  202 203 220 219  204 205 222 221  205 206 223 222  206 207 224 223  207 208 225 224  208 209 226 225  209 210 227 226  210 211 228 227  211 212 229 228  212 213 230 229  213 214 231 230  214 215 232 231  215 216 233 232  216 217 234 233  217 218 235 234  218 219 236 235  219 220 237 236  221 222 239 238  222 223 240 239  223 224 241 240  224 225 242 241  225 226 243 242  226 227 244 243  227 228 245 244  228 229 246 245  229 230 247 246  230 231 248 247  231 232 249 248  232 233 250 249  233 234 251 250  234 235 252 251  235 236 253 252  236 237 254 253  238 239 256 255  239 240 257 256  240 241 258 257  241 242 259 258  242 243 260 259  243 244 261 260  244 245 262 261  245 246 263 262  246 247 264 263  247 248 265 264  248 249 266 265  249 250 267 266  250 251 268 267  251 252 269 268  252 253 270 269  253 254 271 270  255 256 273 272  256 257 274 273  257 258 275 274  258 259 276 275  259 260 277 276  260 261 278 277  261 262 279 278  262 263 280 279  263 264 281 280  264 265 282 281  265 266 283 282  266 267 284 283  267 268 285 284  268 269 286 285  269 270 287 286  270 271 288 287  </DataArray>
<DataArray  type="UInt32"  Name="offsets"  format="ascii">4 8 12 16 20 24 28 32 36 40 44 48 52 56 60 64 68 72 76 80 84 88 92 96 100 104 108 112 116 120 124 128 132 136 140 144 148 152 156 160 164 168 172 176 180 184 188 192 196 200 204 208 212 216 220 224 228 232 236 240 244 248 252 256 260 264 268 272 276 280 284 288 292 296 300 304 308 312 316 320 324 328 332 336 340 344 348 352 356 360 364 368 372 376 380 384 388 392 396 400 404 408 412 416 420 424 428 432 436 440 444 448 452 456 460 464 468 472 476 480 484 488 492 496 500 504 508 512 516 520 524 528 532 536 540 544 548 552 556 560 564 568 572 576 580 584 588 592 596 600 604 608 612 616 620 624 628 632 636 640 644 648 652 656 660 664 668 672 676 680 684 688 692 696 700 704 708 712 716 720 724 728 732 736 740 744 748 752 756 760 764 768 772 776 780 784 788 792 796 800 804 808 812 816 820 824 828 832 836 840 844 848 852 856 860 864 868 872 876 880 884 888 892 896 900 904 908 912 916 920 924 928 932 936 940 944 948 952 956 960 964 968 972 976 980 984 988 992 996 1000 1004 1008 1012 1016 1020 1024 </DataArray>
<DataArray  type="UInt8"  Name="types"  format="ascii">9 9 9 9 9 9 9 9 9 9 9 9 9 9 9 9 9 9 9 9 9 9 9 9 9 9 9 9 9 9 9 9 9 9 9 9 9 9 9 9 9 9 9 9 9 9 9 9 9 9 9 9 9 9 9 9 9 9 9 9 9 9 9 9 9 9 9 9 9 9 9 9 9 9 9 9 9 9 9 9 9 9 9 9 9 9 9 9 9 9 9 9 9 9 9 9 9 9 9 9 9 9 9 9 9 9 9 9 9 9 9 9 9 9 9 9 9 9 9 9 9 9 9 9 9 9 9 9 9 9 9 9 9 9 9 9 9 9 9 9 9 9 9 9 9 9 9 9 9 9 9 9 9 9 9 9 9 9 9 9 9 9 9 9 9 9 9 9 9 9 9 9 9 9 9 9 9 9 9 9 9 9 9 9 9 9 9 9 9 9 9 9 9 9 9 9 9 9 9 9 9 9 9 9 9 9 9 9 9 9 9 9 9 9 9 9 9 9 9 9 9 9 9 9 9 9 9 9 9 9 9 9 9 9 9 9 9 9 9 9 9 9 9 9 9 9 9 9 9 9 9 9 9 9 9 9 </DataArray>
</Cells>
<PointData  Scalars="v_sol"> 
<DataArray  type="Float64"  Name="v_sol"  format="ascii">6.2561590840983549e-03  3.4874440662586354e-03  6.7113661940058173e-04  3.6344151125950463e-03  -1.7459223600945296e-02  -1.5745078888888282e-02  -1.5460361805617457e-02  -5.1287531342821581e-03  1.9717136908495880e-03  7.0928351625456484e-03  9.7071992728729913e-03  1.4800757887248897e-02  1.2395818623621435e-02  3.4671629864314844e-03  -4.2741030714263228e-03  -1.9091773156801814e-03  -7.5973029406058829e-04  -9.4171685061089881e-03  -1.4740135355153340e-02  5.2558054712342914e-02  -8.4685296543809616e-03  7.6479508612308216e-04  6.6540233206345251e-02  7.2973501901633084e-02  5.3657102469573469e-02  1.1996672950446961e-02  -3.1550359496874562e-02  -8.1218423399876394e-02  -9.8595426865186450e-02  -6.6393699411240306e-02  6.2369372670874942e-03  2.4659588558468379e-02  1.5758593737969392e-02  1.0593570961828956e-03  9.0669744156811304e-03  -2.3827037763376541e-02  -1.6587319622777409e-03  1.0140209262360969e-01  1.9555872282272760e-01  1.8213080622290073e-01  1.3586704933918337e-01  7.1379856341578632e-02  1.5170511878551202e-02  -5.2461648068225258e-02  -1.2112967216053204e-01  -2.0189212117332944e-01  -2.2406382546358136e-01  -1.2860867452370034e-01  2.0145450879674471e-02  2.1833863118512636e-02  1.1239741372725653e-02  -8.0034353007206859e-03  1.4980968712340753e-02  1.1522678145769530e-01  2.5203587342606026e-01  2.6155580816105478e-01  1.9828028778688236e-01  1.3202772949175329e-01  6.8517882670499602e-02  1.0884440875796542e-02  -5.0692529893309510e-02  -1.1135426058783487e-01  -1.8609927460096309e-01  -2.8305487244444610e-01  -3.2299245802640025e-01  -1.3993097547547306e-01  4.9599797600859682e-02  -9.9669629886837800e-03  -2.2060545579230061e-02  8.2721571633807764e-02  2.7062226931791800e-01  3.3707773584796769e-01  2.6206952767410491e-01  1.9670220030502567e-01  1.2712963901492189e-01  7.4816375818230696e-02  6.9430461324586122e-03  -5.1503621462200486e-02  -1.2274003984688100e-01  -1.7464002273412985e-01  -2.4315225452912398e-01  -3.5459068998150262e-01  -3.7796162916615716e-01  -4.5990075701956686e-02  4.7052480958942343e-02  1.1903484492962987e-02  2.0141450700093924e-01  3.6851592632558683e-01  3.3510747172520028e-01  2.5850469510308077e-01  1.9848067731567737e-01  1.4014688725968266e-01  7.9439191879840512e-02  1.0813110029383646e-02  -5.1255159693826761e-02  -1.2125870350341907e-01  -1.9156927062508133e-01  -2.4793485926714945e-01  -3.0549729247656171e-01  -4.5788087541894712e-01  -2.7168143363296754e-01  9.7406771490822788e-02  4.2308951918314491e-02  3.0915662086832668e-01  4.0818745691660330e-01  3.3447201457144521e-01  2.6753903645552213e-01  2.0739427381801545e-01  1.4741105191502049e-01  7.2479567346210666e-02  1.4802060569449344e-02  -5.3915736487654277e-02  -1.1298634591651488e-01  -1.8688620107299056e-01  -2.5967562872989736e-01  -3.0792965388590848e-01  -4.2032836637679494e-01  -4.6148641692752468e-01  4.1223581981088636e-02  7.4322816437727424e-02  3.7712396324420894e-01  4.2536143226603607e-01  3.3500542220127544e-01  2.7771997389081388e-01  2.1243445998509614e-01  1.4435707577035700e-01  8.0372038546394076e-02  2.3257585305228690e-02  -5.1974293726378684e-02  -1.1528082891884039e-01  -1.8223540655897877e-01  -2.5670026508660260e-01  -3.2649487924348114e-01  -3.8613646265653012e-01  -5.7110494619074603e-01  -4.5732554069632128e-02  7.5262740467021527e-02  4.0870913348364074e-01  4.3348314043898467e-01  3.4168300754597308e-01  2.8540452520431386e-01  2.1363763622029522e-01  1.4979334835171887e-01  9.0288873750093965e-02  1.7547847419251961e-02  -4.4564027673205803e-02  -1.1164001677050527e-01  -1.7979946311733530e-01  -2.4797910141799770e-01  -3.3686910351607635e-01  -3.7425867657104683e-01  -6.1235831248634043e-01  -1.4142036217100756e-01  4.5689539085959130e-02  4.0677105320229118e-01  4.3581728270417280e-01  3.4768636098497407e-01  2.8704433959042391e-01  2.1708186942183780e-01  1.5207832979316702e-01  9.1376983627676628e-02  1.8333282915440209e-02  -3.1712481151399290e-02  -1.0533090079466879e-01  -1.7263871337284373e-01  -2.3907277382792841e-01  -3.3244275843834964e-01  -3.6838647807018637e-01  -6.1987561459727847e-01  -2.1914910304696936e-01  1.6219962901662961e-02  3.5849332118442984e-01  4.3307915473762476e-01  3.5275497968210212e-01  2.8352001873694893e-01  2.2115996516125555e-01  1.5021587450262217e-01  9.5103432827598297e-02  2.7320804746524915e-02  -2.5785435693748564e-02  -1.0303352563076019e-01  -1.5516617131060104e-01  -2.2764339408681070e-01  -3.1611236831580625e-01  -3.5635359059337618e-01  -6.0536250263962621e-01  -2.8060108951141316e-01  -3.6954675700633571e-02  2.8044539959977682e-01  4.1472991825112387e-01  3.5950248544123325e-01  2.7787476643017961e-01  2.2151204166902436e-01  1.4642668178417784e-01  9.7208373343469087e-02  2.7293897111267271e-02  -1.8549358373249204e-02  -8.8577301951822798e-02  -1.2763946578299765e-01  -2.1438077162249544e-01  -2.8690881013953667e-01  -3.3171222768604297e-01  -5.7743257146608584e-01  -3.2263143751475809e-01  -2.3321398292622829e-02  1.5267849456437171e-01  3.6659233066554842e-01  3.6068336826303193e-01  2.6917609474231402e-01  2.1699344299713180e-01  1.3992914322101391e-01  9.7023889886030071e-02  2.8798362416553432e-02  -5.7281056621088129e-03  -7.0541589843644378e-02  -1.1104589807880759e-01  -1.9098308015309076e-01  -2.3728101796816831e-01  -2.9318429787245187e-01  -5.3455748830968997e-01  -3.5378589944836702e-01  -8.3356108947961916e-02  7.9599214090966111e-02  2.6038523241278200e-01  3.4553899870464583e-01  2.6497962516248463e-01  2.0330536819168585e-01  1.2552900218333013e-01  9.2250755360253664e-02  2.8079989594212342e-02  4.2378405871595377e-03  -5.7381213641209315e-02  -8.2168222248016246e-02  -1.3894486393061492e-01  -1.8691677473887000e-01  -2.3373486150956033e-01  -4.4406467279549422e-01  -4.3803472590818088e-01  5.6971532788220947e-03  4.6320195373388516e-03  1.1937866435252922e-01  2.6790117658910101e-01  2.2118149707982299e-01  1.9274021481717463e-01  9.8768364179635332e-02  8.6568524556316903e-02  1.6485027165571882e-02  1.8721690345072740e-02  -4.4612345215519142e-02  -3.7089900395906913e-02  -1.0400057294302922e-01  -1.1289595789855761e-01  -1.4744960187927816e-01  -2.9133345538568733e-01  -5.8368784309663846e-01  -7.1027835031938533e-02  9.4154325513172682e-02  -2.4582793340136900e-02  1.9903264241921759e-01  9.4006128122137031e-02  1.2866270379443931e-01  5.3052094176784963e-02  6.9454857127686856e-02  5.6207494897338962e-03  3.1828235427690268e-02  -2.5906576306652825e-02  6.5009862296522419e-03  -5.0997466795451613e-02  -8.2384012311653536e-03  -6.9059950130035880e-02  -8.7354829602556069e-02  -7.6131757476228434e-01  1.5422035564589648e-01  2.2086246130018111e-02  1.0937107415009278e-02  -2.4808589758296178e-02  -4.3930943691703273e-03  -1.3917724442856692e-02  -2.3556779844071958e-04  -6.9758737391604963e-03  3.8175095162827034e-03  -4.4656575662080766e-03  6.7253629373930420e-03  -1.4817797657803136e-03  9.9970442964631978e-03  2.9834349492979225e-03  3.1550276564165067e-04  4.5881567213782663e-02  -2.4715133121377489e-01  </DataArray> 
</PointData> 
</Piece>
</UnstructuredGrid>
</VTKFile>