<?xml version="1.0"?>
<VTKFile type="UnstructuredGrid"  version="0.1"  >
<UnstructuredGrid>
<Piece  NumberOfPoints="1089" NumberOfCells="1024">
<Points>
<DataArray  type="Float64"  NumberOfComponents="3"  format="ascii">0 0 0  0.03125 0 0  0.0625 0 0  0.09375 0 0  0.125 0 0  0.15625 0 0  0.1875 0 0  0.21875 0 0  0.25 0 0  0.28125 0 0  0.3125 0 0  0.34375 0 0  0.375 0 0  0.40625 0 0  0.4375 0 0  0.46875 0 0  0.5 0 0  0.53125 0 0  0.5625 0 0  0.59375 0 0  0.625 0 0  0.65625 0 0  0.6875 0 0  0.71875 0 0  0.75 0 0  0.78125 0 0  0.8125 0 0  0.84375 0 0  0.875 0 0  0.90625 0 0  0.9375 0 0  0.96875 0 0  1 0 0  0 0.03125 0  0.03125 0.03125 0  0.0625 0.03125 0  0.09375 0.03125 0  0.125 0.03125 0  0.15625 0.03125 0  0.1875 0.03125 0  0.21875 0.03125 0  0.25 0.03125 0  0.28125 0.03125 0  0.3125 0.03125 0  0.34375 0.03125 0  0.375 0.03125 0  0.40625 0.03125 0  0.4375 0.03125 0  0.46875 0.03125 0  0.5 0.03125 0  0.53125 0.03125 0  0.5625 0.03125 0  0.59375 0.03125 0  0.625 0.03125 0  0.65625 0.03125 0  0.6875 0.03125 0  0.71875 0.03125 0  0.75 0.03125 0  0.78125 0.03125 0  0.8125 0.03125 0  0.84375 0.03125 0  0.875 0.03125 0  0.90625 0.03125 0  0.9375 0.03125 0  0.96875 0.03125 0  1 0.03125 0  0 0.0625 0  0.03125 0.0625 0  0.0625 0.0625 0  0.09375 0.0625 0  0.125 0.0625 0  0.15625 0.0625 0  0.1875 0.0625 0  0.21875 0.0625 0  0.25 0.0625 0  0.28125 0.0625 0  0.3125 0.0625 0  0.34375 0.0625 0  0.375 0.0625 0  0.40625 0.0625 0  0.4375 0.0625 0  0.46875 0.0625 0  0.5 0.0625 0  0.53125 0.0625 0  0.5625 0.0625 0  0.59375 0.0625 0  0.625 0.0625 0  0.65625 0.0625 0  0.6875 0.0625 0  0.71875 0.0625 0  0.75 0.0625 0  0.78125 0.0625 0  0.8125 0.0625 0  0.84375 0.0625 0  0.875 0.0625 0  0.90625 0.0625 0  0.9375 0.0625 0  0.96875 0.0625 0  1 0.0625 0  0 0.09375 0  0.03125 0.09375 0  0.0625 0.09375 0  0.09375 0.09375 0  0.125 0.09375 0  0.15625 0.09375 0  0.1875 0.09375 0  0.21875 0.09375 0  0.25 0.09375 0  0.28125 0.09375 0  0.3125 0.09375 0  0.34375 0.09375 0  0.375 0.09375 0  0.40625 0.09375 0  0.4375 0.09375 0  0.46875 0.09375 0  0.5 0.09375 0  0.53125 0.09375 0  0.5625 0.09375 0  0.59375 0.09375 0  0.625 0.09375 0  0.65625 0.09375 0  0.6875 0.09375 0  0.71875 0.09375 0  0.75 0.09375 0  0.78125 0.09375 0  0.8125 0.09375 0  0.84375 0.09375 0  0.875 0.09375 0  0.90625 0.09375 0  0.9375 0.09375 0  0.96875 0.09375 0  1 0.09375 0  0 0.125 0  0.03125 0.125 0  0.0625 0.125 0  0.09375 0.125 0  0.125 0.125 0  0.15625 0.125 0  0.1875 0.125 0  0.21875 0.125 0  0.25 0.125 0  0.28125 0.125 0  0.3125 0.125 0  0.34375 0.125 0  0.375 0.125 0  0.40625 0.125 0  0.4375 0.125 0  0.46875 0.125 0  0.5 0.125 0  0.53125 0.125 0  0.5625 0.125 0  0.59375 0.125 0  0.625 0.125 0  0.65625 0.125 0  0.6875 0.125 0  0.71875 0.125 0  0.75 0.125 0  0.78125 0.125 0  0.8125 0.125 0  0.84375 0.125 0  0.875 0.125 0  0.90625 0.125 0  0.9375 0.125 0  0.96875 0.125 0  1 0.125 0  0 0.15625 0  0.03125 0.15625 0  0.0625 0.15625 0  0.09375 0.15625 0  0.125 0.15625 0  0.15625 0.15625 0  0.1875 0.15625 0  0.21875 0.15625 0  0.25 0.15625 0  0.28125 0.15625 0  0.3125 0.15625 0  0.34375 0.15625 0  0.375 0.15625 0  0.40625 0.15625 0  0.4375 0.15625 0  0.46875 0.15625 0  0.5 0.15625 0  0.53125 0.15625 0  0.5625 0.15625 0  0.59375 0.15625 0  0.625 0.15625 0  0.65625 0.15625 0  0.6875 0.15625 0  0.71875 0.15625 0  0.75 0.15625 0  0.78125 0.15625 0  0.8125 0.15625 0  0.84375 0.15625 0  0.875 0.15625 0  0.90625 0.15625 0  0.9375 0.15625 0  0.96875 0.15625 0  1 0.15625 0  0 0.1875 0  0.03125 0.1875 0  0.0625 0.1875 0  0.09375 0.1875 0  0.125 0.1875 0  0.15625 0.1875 0  0.1875 0.1875 0  0.21875 0.1875 0  0.25 0.1875 0  0.28125 0.1875 0  0.3125 0.1875 0  0.34375 0.1875 0  0.375 0.1875 0  0.40625 0.1875 0  0.4375 0.1875 0  0.46875 0.1875 0  0.5 0.1875 0  0.53125 0.1875 0  0.5625 0.1875 0  0.59375 0.1875 0  0.625 0.1875 0  0.65625 0.1875 0  0.6875 0.1875 0  0.71875 0.1875 0  0.75 0.1875 0  0.78125 0.1875 0  0.8125 0.1875 0  0.84375 0.1875 0  0.875 0.1875 0  0.90625 0.1875 0  0.9375 0.1875 0  0.96875 0.1875 0  1 0.1875 0  0 0.21875 0  0.03125 0.21875 0  0.0625 0.21875 0  0.09375 0.21875 0  0.125 0.21875 0  0.15625 0.21875 0  0.1875 0.21875 0  0.21875 0.21875 0  0.25 0.21875 0  0.28125 0.21875 0  0.3125 0.21875 0  0.34375 0.21875 0  0.375 0.21875 0  0.40625 0.21875 0  0.4375 0.21875 0  0.46875 0.21875 0  0.5 0.21875 0  0.53125 0.21875 0  0.5625 0.21875 0  0.59375 0.21875 0  0.625 0.21875 0  0.65625 0.21875 0  0.6875 0.21875 0  0.71875 0.21875 0  0.75 0.21875 0  0.78125 0.21875 0  0.8125 0.21875 0  0.84375 0.21875 0  0.875 0.21875 0  0.90625 0.21875 0  0.9375 0.21875 0  0.96875 0.21875 0  1 0.21875 0  0 0.25 0  0.03125 0.25 0  0.0625 0.25 0  0.09375 0.25 0  0.125 0.25 0  0.15625 0.25 0  0.1875 0.25 0  0.21875 0.25 0  0.25 0.25 0  0.28125 0.25 0  0.3125 0.25 0  0.34375 0.25 0  0.375 0.25 0  0.40625 0.25 0  0.4375 0.25 0  0.46875 0.25 0  0.5 0.25 0  0.53125 0.25 0  0.5625 0.25 0  0.59375 0.25 0  0.625 0.25 0  0.65625 0.25 0  0.6875 0.25 0  0.71875 0.25 0  0.75 0.25 0  0.78125 0.25 0  0.8125 0.25 0  0.84375 0.25 0  0.875 0.25 0  0.90625 0.25 0  0.9375 0.25 0  0.96875 0.25 0  1 0.25 0  0 0.28125 0  0.03125 0.28125 0  0.0625 0.28125 0  0.09375 0.28125 0  0.125 0.28125 0  0.15625 0.28125 0  0.1875 0.28125 0  0.21875 0.28125 0  0.25 0.28125 0  0.28125 0.28125 0  0.3125 0.28125 0  0.34375 0.28125 0  0.375 0.28125 0  0.40625 0.28125 0  0.4375 0.28125 0  0.46875 0.28125 0  0.5 0.28125 0  0.53125 0.28125 0  0.5625 0.28125 0  0.59375 0.28125 0  0.625 0.28125 0  0.65625 0.28125 0  0.6875 0.28125 0  0.71875 0.28125 0  0.75 0.28125 0  0.78125 0.28125 0  0.8125 0.28125 0  0.84375 0.28125 0  0.875 0.28125 0  0.90625 0.28125 0  0.9375 0.28125 0  0.96875 0.28125 0  1 0.28125 0  0 0.3125 0  0.03125 0.3125 0  0.0625 0.3125 0  0.09375 0.3125 0  0.125 0.3125 0  0.15625 0.3125 0  0.1875 0.3125 0  0.21875 0.3125 0  0.25 0.3125 0  0.28125 0.3125 0  0.3125 0.3125 0  0.34375 0.3125 0  0.375 0.3125 0  0.40625 0.3125 0  0.4375 0.3125 0  0.46875 0.3125 0  0.5 0.3125 0  0.53125 0.3125 0  0.5625 0.3125 0  0.59375 0.3125 0  0.625 0.3125 0  0.65625 0.3125 0  0.6875 0.3125 0  0.71875 0.3125 0  0.75 0.3125 0  0.78125 0.3125 0  0.8125 0.3125 0  0.84375 0.3125 0  0.875 0.3125 0  0.90625 0.3125 0  0.9375 0.3125 0  0.96875 0.3125 0  1 0.3125 0  0 0.34375 0  0.03125 0.34375 0  0.0625 0.34375 0  0.09375 0.34375 0  0.125 0.34375 0  0.15625 0.34375 0  0.1875 0.34375 0  0.21875 0.34375 0  0.25 0.34375 0  0.28125 0.34375 0  0.3125 0.34375 0  0.34375 0.34375 0  0.375 0.34375 0  0.40625 0.34375 0  0.4375 0.34375 0  0.46875 0.34375 0  0.5 0.34375 0  0.53125 0.34375 0  0.5625 0.34375 0  0.59375 0.34375 0  0.625 0.34375 0  0.65625 0.34375 0  0.6875 0.34375 0  0.71875 0.34375 0  0.75 0.34375 0  0.78125 0.34375 0  0.8125 0.34375 0  0.84375 0.34375 0  0.875 0.34375 0  0.90625 0.34375 0  0.9375 0.34375 0  0.96875 0.34375 0  1 0.34375 0  0 0.375 0  0.03125 0.375 0  0.0625 0.375 0  0.09375 0.375 0  0.125 0.375 0  0.15625 0.375 0  0.1875 0.375 0  0.21875 0.375 0  0.25 0.375 0  0.28125 0.375 0  0.3125 0.375 0  0.34375 0.375 0  0.375 0.375 0  0.40625 0.375 0  0.4375 0.375 0  0.46875 0.375 0  0.5 0.375 0  0.53125 0.375 0  0.5625 0.375 0  0.59375 0.375 0  0.625 0.375 0  0.65625 0.375 0  0.6875 0.375 0  0.71875 0.375 0  0.75 0.375 0  0.78125 0.375 0  0.8125 0.375 0  0.84375 0.375 0  0.875 0.375 0  0.90625 0.375 0  0.9375 0.375 0  0.96875 0.375 0  1 0.375 0  0 0.40625 0  0.03125 0.40625 0  0.0625 0.40625 0  0.09375 0.40625 0  0.125 0.40625 0  0.15625 0.40625 0  0.1875 0.40625 0  0.21875 0.40625 0  0.25 0.40625 0  0.28125 0.40625 0  0.3125 0.40625 0  0.34375 0.40625 0  0.375 0.40625 0  0.40625 0.40625 0  0.4375 0.40625 0  0.46875 0.40625 0  0.5 0.40625 0  0.53125 0.40625 0  0.5625 0.40625 0  0.59375 0.40625 0  0.625 0.40625 0  0.65625 0.40625 0  0.6875 0.40625 0  0.71875 0.40625 0  0.75 0.40625 0  0.78125 0.40625 0  0.8125 0.40625 0  0.84375 0.40625 0  0.875 0.40625 0  0.90625 0.40625 0  0.9375 0.40625 0  0.96875 0.40625 0  1 0.40625 0  0 0.4375 0  0.03125 0.4375 0  0.0625 0.4375 0  0.09375 0.4375 0  0.125 0.4375 0  0.15625 0.4375 0  0.1875 0.4375 0  0.21875 0.4375 0  0.25 0.4375 0  0.28125 0.4375 0  0.3125 0.4375 0  0.34375 0.4375 0  0.375 0.4375 0  0.40625 0.4375 0  0.4375 0.4375 0  0.46875 0.4375 0  0.5 0.4375 0  0.53125 0.4375 0  0.5625 0.4375 0  0.59375 0.4375 0  0.625 0.4375 0  0.65625 0.4375 0  0.6875 0.4375 0  0.71875 0.4375 0  0.75 0.4375 0  0.78125 0.4375 0  0.8125 0.4375 0  0.84375 0.4375 0  0.875 0.4375 0  0.90625 0.4375 0  0.9375 0.4375 0  0.96875 0.4375 0  1 0.4375 0  0 0.46875 0  0.03125 0.46875 0  0.0625 0.46875 0  0.09375 0.46875 0  0.125 0.46875 0  0.15625 0.46875 0  0.1875 0.46875 0  0.21875 0.46875 0  0.25 0.46875 0  0.28125 0.46875 0  0.3125 0.46875 0  0.34375 0.46875 0  0.375 0.46875 0  0.40625 0.46875 0  0.4375 0.46875 0  0.46875 0.46875 0  0.5 0.46875 0  0.53125 0.46875 0  0.5625 0.46875 0  0.59375 0.46875 0  0.625 0.46875 0  0.65625 0.46875 0  0.6875 0.46875 0  0.71875 0.46875 0  0.75 0.46875 0  0.78125 0.46875 0  0.8125 0.46875 0  0.84375 0.46875 0  0.875 0.46875 0  0.90625 0.46875 0  0.9375 0.46875 0  0.96875 0.46875 0  1 0.46875 0  0 0.5 0  0.03125 0.5 0  0.0625 0.5 0  0.09375 0.5 0  0.125 0.5 0  0.15625 0.5 0  0.1875 0.5 0  0.21875 0.5 0  0.25 0.5 0  0.28125 0.5 0  0.3125 0.5 0  0.34375 0.5 0  0.375 0.5 0  0.40625 0.5 0  0.4375 0.5 0  0.46875 0.5 0  0.5 0.5 0  0.53125 0.5 0  0.5625 0.5 0  0.59375 0.5 0  0.625 0.5 0  0.65625 0.5 0  0.6875 0.5 0  0.71875 0.5 0  0.75 0.5 0  0.78125 0.5 0  0.8125 0.5 0  0.84375 0.5 0  0.875 0.5 0  0.90625 0.5 0  0.9375 0.5 0  0.96875 0.5 0  1 0.5 0  0 0.53125 0  0.03125 0.53125 0  0.0625 0.53125 0  0.09375 0.53125 0  0.125 0.53125 0  0.15625 0.53125 0  0.1875 0.53125 0  0.21875 0.53125 0  0.25 0.53125 0  0.28125 0.53125 0  0.3125 0.53125 0  0.34375 0.53125 0  0.375 0.53125 0  0.40625 0.53125 0  0.4375 0.53125 0  0.46875 0.53125 0  0.5 0.53125 0  0.53125 0.53125 0  0.5625 0.53125 0  0.59375 0.53125 0  0.625 0.53125 0  0.65625 0.53125 0  0.6875 0.53125 0  0.71875 0.53125 0  0.75 0.53125 0  0.78125 0.531
[...]
<PointData  Scalars="u_sol"> 
<DataArray  type="Float64"  Name="u_sol"  format="ascii">-1.3260888597975475e-05  -1.6243228118795921e-04  2.9433864482408752e-04  9.8463427952236757e-04  1.3231320998987836e-03  1.2674152052414632e-03  2.9443791264746931e-03  1.8965250867214090e-03  1.4935852006051616e-03  1.0881602858483750e-02  2.3282164293460732e-02  3.1482784929210535e-02  3.1995731527564623e-02  2.2059538043109152e-02  3.1312628914690228e-03  -1.9944066770328298e-02  -3.9036229695272692e-02  -4.9800555520844156e-02  -5.1238128795402536e-02  -4.0794040858027319e-02  -1.8899008316001217e-02  8.8968947109806604e-03  3.3028430276320769e-02  4.4498048277455800e-02  4.3247975454553063e-02  3.5111152368908188e-02  2.0430598033730631e-02  6.7194789735429347e-03  1.2870466003068956e-03  -5.9995523082385905e-04  -6.9424950766383314e-04  -3.4870247184508150e-04  4.9156808036162615e-06  -2.4971529225536684e-04  1.2275482056096666e-03  5.9697988566952435e-03  1.1130669647237494e-02  1.4344833936541094e-02  1.5826954227716922e-02  1.4776624999222613e-02  1.7932315326192775e-02  1.9047258577610866e-02  -2.6093070049733320e-03  -5.2760644257931276e-02  -1.2456470041955875e-01  -2.0417774952516729e-01  -2.7704153521120584e-01  -3.3353644142743027e-01  -3.6941767914597057e-01  -3.8547299371617100e-01  -3.8245662529410157e-01  -3.5960089214515839e-01  -3.1721186544696134e-01  -2.5614996864521572e-01  -1.7940601350512783e-01  -9.5237130235147766e-02  -1.8420141217904168e-02  3.4197022174165558e-02  5.7258067847557673e-02  6.2397356267235214e-02  5.3382440372992335e-02  3.3418968564922415e-02  1.6326094490443414e-02  5.9601088267362164e-03  1.0739799391224253e-03  -1.8916920786357885e-04  -7.0180834770638425e-04  3.1150126682793363e-03  1.0798379235746072e-02  1.6334538685147299e-02  1.6482079215088870e-02  1.3732364905757379e-02  1.1453391835724167e-02  -1.2051376433737169e-02  -7.7197829272755411e-02  -1.7262848766754910e-01  -2.7283616975524794e-01  -3.5669946412352993e-01  -4.1607729516409125e-01  -4.5234462501325495e-01  -4.7180685191944383e-01  -4.8116195602221001e-01  -4.8431200914136208e-01  -4.8186121243861108e-01  -4.7331346241348027e-01  -4.5722527246585853e-01  -4.2959894439032698e-01  -3.8427101473141240e-01  -3.1535155093305334e-01  -2.2352868608304480e-01  -1.2391257751707696e-01  -4.4238365139282892e-02  -2.4721247065974238e-03  1.7291214788573740e-02  2.6699246343638464e-02  2.1285203869745136e-02  1.1091572887778213e-02  3.2698093421664998e-03  -6.2745780969305999e-04  -1.1920814409737885e-03  6.0118630213584759e-03  1.6173386847595818e-02  1.6113218971552715e-02  9.7078026868286493e-03  -1.4336582478264733e-03  -4.6324897313216727e-02  -1.3851358863244209e-01  -2.5031593223080290e-01  -3.4695361976684258e-01  -4.1091935779031774e-01  -4.4395353849878677e-01  -4.5720738359330010e-01  -4.6193386093597488e-01  -4.6397636787179974e-01  -4.6442734653887574e-01  -4.6289953997334143e-01  -4.6056756996673154e-01  -4.5881214414602850e-01  -4.5795022566591548e-01  -4.5750518453282368e-01  -4.5321066242346569e-01  -4.3418296309970422e-01  -3.8454085158131651e-01  -2.9431016195734883e-01  -1.7619083529641216e-01  -7.0498066143013821e-02  -1.6570927017864862e-02  6.1735593875091792e-04  1.0310547426159179e-02  9.5460665695626962e-03  3.0157606580441931e-03  -4.7402150826525229e-04  -2.0632731098806124e-03  9.7219790323002896e-03  1.6163066347095002e-02  6.9160417434317063e-03  -1.0767770355337630e-02  -6.5389251373138974e-02  -1.6830906516445929e-01  -2.8153366510883709e-01  -3.6573065303505231e-01  -4.0821249593157888e-01  -4.1964126775821681e-01  -4.1727705039688295e-01  -4.1239523558575625e-01  -4.0800762067989316e-01  -4.0372584017396829e-01  -3.9964044510040825e-01  -3.9659494185599059e-01  -3.9404569734694728e-01  -3.9140531988845501e-01  -3.9018366772995372e-01  -3.9312597121333009e-01  -4.0320646158265583e-01  -4.1946971800341698e-01  -4.2958192587205840e-01  -4.0767132992383592e-01  -3.2974892646612453e-01  -2.0248371019503081e-01  -7.6205632757960703e-02  -1.2219890360789184e-02  -2.4584793798304989e-04  3.9984073578795808e-03  2.5008114346643092e-03  -6.5894389394266061e-04  -1.5021890133086655e-03  1.0595525549282194e-02  6.9322727005362720e-03  -1.3662916500279699e-02  -6.6887582658404068e-02  -1.6909194449680975e-01  -2.7922395537509981e-01  -3.5337553322756421e-01  -3.8104702317479117e-01  -3.8014363925980543e-01  -3.7189456396130199e-01  -3.6624166961609933e-01  -3.6413119422233625e-01  -3.6462518209584333e-01  -3.6704954025828407e-01  -3.6993530169631733e-01  -3.7103380150123644e-01  -3.6967529707616875e-01  -3.6642191499059729e-01  -3.6124712968427164e-01  -3.5463188554720720e-01  -3.4942454293454039e-01  -3.5241380200228467e-01  -3.7051092028448707e-01  -3.9640138903936023e-01  -3.9699126203944979e-01  -3.3222110447483505e-01  -2.0118542042553364e-01  -6.4665525031704404e-02  -3.1004131740244092e-03  1.1570890327073850e-03  1.1000077924281861e-03  -1.9562886984827679e-04  3.7400321114494059e-05  5.5608925690998076e-03  -1.0337322764775060e-02  -5.6019495885337167e-02  -1.4846245807547487e-01  -2.5466148963042268e-01  -3.2530330957491399e-01  -3.4678025384724959e-01  -3.4088772056257877e-01  -3.3221660850440765e-01  -3.2957814076353470e-01  -3.3186947118143029e-01  -3.3674441664209948e-01  -3.4196409851796322e-01  -3.4539022020610000e-01  -3.4636151256994152e-01  -3.4614634203966921e-01  -3.4573776885634760e-01  -3.4512851483082574e-01  -3.4418014714185508e-01  -3.4187144561557986e-01  -3.3592575387866591e-01  -3.2533941292832280e-01  -3.1693559191961573e-01  -3.2635631316053693e-01  -3.5619085531172756e-01  -3.6887120687459868e-01  -3.0908661638980894e-01  -1.7312583906044973e-01  -3.8100856553171768e-02  3.4903199546865724e-03  3.4252174093449116e-06  8.3490627037369084e-04  1.7486726459543305e-03  -4.0892686864662658e-03  -3.8005566194308699e-02  -1.1488873589373474e-01  -2.1458459326066462e-01  -2.8788027230283492e-01  -3.1138864977554792e-01  -3.0487412342245246e-01  -2.9682454994710061e-01  -2.9665802380228473e-01  -3.0129793494723706e-01  -3.0679627632114764e-01  -3.1021790639231672e-01  -3.1053390435741018e-01  -3.0922627676950382e-01  -3.0817622565974245e-01  -3.0760577962013003e-01  -3.0710307910739099e-01  -3.0676110931440226e-01  -3.0708411523473228e-01  -3.0895424551668765e-01  -3.1224688073860840e-01  -3.1308384376303033e-01  -3.0483826857582169e-01  -2.9022098013953312e-01  -2.9139712674354890e-01  -3.2056287824330387e-01  -3.3408961242589369e-01  -2.6558114183520515e-01  -1.2188996077774834e-01  -6.9656310956448626e-03  3.4885482729481361e-03  -2.3108593117406552e-03  3.3915577300605297e-03  -1.6500506551173914e-02  -7.4814506155850030e-02  -1.6342260475114817e-01  -2.4140176905707370e-01  -2.7442600349002200e-01  -2.7140938495889178e-01  -2.6323464689263193e-01  -2.6382435858162528e-01  -2.6919254892729533e-01  -2.7397243736447524e-01  -2.7555367350022181e-01  -2.7457827364882958e-01  -2.7394123873667697e-01  -2.7483268368073177e-01  -2.7606914323941156e-01  -2.7672376799999593e-01  -2.7669804781380003e-01  -2.7596721066400326e-01  -2.7447071940188711e-01  -2.7259019152724079e-01  -2.7240414953043129e-01  -2.7671683946732517e-01  -2.8260238902539769e-01  -2.7845067073828639e-01  -2.6210928919838733e-01  -2.6114418663250888e-01  -2.9064848284188077e-01  -2.9311965994819428e-01  -2.0183444147759241e-01  -5.6264170204412940e-02  8.1999585664264980e-03  -2.5139659289056524e-03  5.2109902597518428e-03  -3.1725884504071940e-02  -1.0520644149709267e-01  -1.8430493131688569e-01  -2.3174544707985673e-01  -2.3835467803718344e-01  -2.3060645868865265e-01  -2.3000294487337655e-01  -2.3551370932082821e-01  -2.4002499128188964e-01  -2.4104021474073503e-01  -2.4032612315249630e-01  -2.4113613655268273e-01  -2.4361481393602391e-01  -2.4566192582900848e-01  -2.4674629470208034e-01  -2.4738391721912484e-01  -2.4780587932102627e-01  -2.4816700466118835e-01  -2.4837471190557647e-01  -2.4758299095213809e-01  -2.4455648408112429e-01  -2.4104338153314342e-01  -2.4322711148223675e-01  -2.5054481579586291e-01  -2.4737553130512488e-01  -2.3043869547468254e-01  -2.3426693135743437e-01  -2.6288339949752554e-01  -2.3813547115954020e-01  -1.1714679412854619e-01  -2.7964769123881373e-03  1.9475062576720674e-03  6.1418115294063682e-03  -4.3273277490340836e-02  -1.1802106234731337e-01  -1.7782933367837370e-01  -2.0143520863131553e-01  -1.9846997589818532e-01  -1.9564303389083540e-01  -2.0042249455336514e-01  -2.0559917445053980e-01  -2.0709528960586329e-01  -2.0692814245620922e-01  -2.0848331251392871e-01  -2.1137799597069412e-01  -2.1312383416256925e-01  -2.1366768704550593e-01  -2.1406531090304676e-01  -2.1450655510265518e-01  -2.1497460871481627e-01  -2.1543066156278365e-01  -2.1611073431399461e-01  -2.1759076586939605e-01  -2.1904519694824387e-01  -2.1713962910036308e-01  -2.1209563994442759e-01  -2.1288049159608038e-01  -2.1966241129771380e-01  -2.1309368997326084e-01  -1.9741365194514718e-01  -2.1170179140143830e-01  -2.2782971207039079e-01  -1.5663775963038723e-01  -3.0351386760217584e-02  1.0159699010301613e-02  6.3793396966972775e-03  -4.6591480454950679e-02  -1.1285605392687671e-01  -1.5385216868093138e-01  -1.6458703725578533e-01  -1.6179975115894080e-01  -1.6429961460457074e-01  -1.7034104059501590e-01  -1.7330198177705278e-01  -1.7374411100080164e-01  -1.7536529001326276e-01  -1.7830196288324959e-01  -1.7999868703970126e-01  -1.8053920754676134e-01  -1.8140795477434521e-01  -1.8258315697031322e-01  -1.8363563090517895e-01  -1.8444997612789241e-01  -1.8498681786211599e-01  -1.8507831382809362e-01  -1.8493393175630038e-01  -1.8619847288607028e-01  -1.8894394849391724e-01  -1.8795330327094364e-01  -1.8269964940505978e-01  -1.8443136461610016e-01  -1.8887918779254012e-01  -1.7575522275618141e-01  -1.6821698464582319e-01  -1.8985185673245816e-01  -1.6641652566531742e-01  -5.1597738506115570e-02  1.5893181843959672e-02  6.0658179407014840e-03  -4.1952222875755264e-02  -9.5520412465835619e-02  -1.2255281629301591e-01  -1.2838941833588413e-01  -1.2865202183066238e-01  -1.3391473643099144e-01  -1.3899681553155721e-01  -1.4062971643948866e-01  -1.4202617778524115e-01  -1.4482874868576726e-01  -1.4690500902691117e-01  -1.4774826988954368e-01  -1.4897859956569451e-01  -1.5064629972795718e-01  -1.5202934642514401e-01  -1.5316771803775342e-01  -1.5423586521257460e-01  -1.5530850411044708e-01  -1.5640676268066778e-01  -1.5682398544021983e-01  -1.5603951463843646e-01  -1.5672691282841478e-01  -1.5968732914585651e-01  -1.5792046882867852e-01  -1.5339092623899078e-01  -1.5748356796779292e-01  -1.5518230578841857e-01  -1.3861483748176293e-01  -1.4702969752773895e-01  -1.5098440710517808e-01  -6.3564565656715255e-02  1.6726467683860862e-02  5.5237969238844994e-03  -3.2231894484328297e-02  -7.2350923076286600e-02  -9.0300861699045373e-02  -9.4926712549550332e-02  -9.7755616041635143e-02  -1.0351008248901955e-01  -1.0733256672205399e-01  -1.0892157459590195e-01  -1.1125831163854875e-01  -1.1377624089397591e-01  -1.1511290732041250e-01  -1.1638720791644792e-01  -1.1815988455216352e-01  -1.1962323154159646e-01  -1.2074054821448718e-01  -1.2189983449193194e-01  -1.2312069997833196e-01  -1.2431789551900872e-01  -1.2562030970910423e-01  -1.2743936951971474e-01  -1.2868023783303531e-01  -1.2795826571861749e-01  -1.2902356575126123e-01  -1.3154427860297097e-01  -1.2772178887357835e-01  -1.2631135019620965e-01  -1.3017842555302755e-01  -1.1714978547029765e-01  -1.1115710509846803e-01  -1.2408924133296456e-01  -6.5943742557468474e-02  1.4391011031443296e-02  4.5980408178326942e-03  -1.9999339265041920e-02  -4.7821098940034057e-02  -5.9664279153248324e-02  -6.4169334835929778e-02  -6.8130070034265966e-02  -7.3200434259434802e-02  -7.6190840361065701e-02  -7.8115645645200474e-02  -8.0566941076285717e-02  -8.2517735815590229e-02  -8.3833796238850747e-02  -8.5449082804199009e-02  -8.7029307985324961e-02  -8.8258619169625477e-02  -8.9587868398160256e-02  -9.1091998917856645e-02  -9.2591874143413758e-02  -9.4121711296922650e-02  -9.5521964631767389e-02  -9.6863100929719101e-02  -9.9137607739661321e-02  -1.0078640967769827e-01  -1.0049605397425276e-01  -1.0300283075078651e-01  -1.0357213133230683e-01  -9.9143034463731530e-02  -1.0280072866141204e-01  -9.7796439412498951e-02  -8.4236995426717046e-02  -9.5957619758106460e-02  -6.1382241636053735e-02  1.0989289786913336e-02  3.6381853367082281e-03  -7.8056943031708818e-03  -2.3634836646423654e-02  -3.1363201829712292e-02  -3.5312075495251290e-02  -3.9420766732400428e-02  -4.3301463055643377e-02  -4.5819126083813097e-02  -4.7809831209858669e-02  -4.9932257483457830e-02  -5.1521317049461203e-02  -5.2911411226936163e-02  -5.4430386180125176e-02  -5.5777059018638088e-02  -5.7100327490364672e-02  -5.8638202351084905e-02  -6.0250732462228583e-02  -6.1948999767471181e-02  -6.3806951548855934e-02  -6.5882267373722228e-02  -6.7798301738299996e-02  -6.9525131428734843e-02  -7.2348851914726175e-02  -7.3814831893658672e-02  -7.4878192999015353e-02  -7.8407273062194957e-02  -7.5580209747226165e-02  -7.6257526172492027e-02  -7.8191807320931256e-02  -6.3861177654415624e-02  -7.1450912385926810e-02  -5.3881043668049078e-02  7.8444623809750778e-03  9.8659772269457614e-04  4.6806707514872124e-03  -9.7708430961464037e-04  -4.3387176599145672e-03  -7.9944629708955106e-03  -1.1203075477138998e-02  -1.3988700930207707e-02  -1.5955833669151341e-02  -1.7805407418244389e-02  -1.9423070176019071e-02  -2.0773027121154971e-02  -2.2030778342737922e-02  -2.3318062339713799e-02  -2.4555731839698270e-02  -2.5928457870915467e-02  -2.7465699112350698e-02  -2.9129778527651688e-02  -3.1009948766203856e-02  -3.3153310998922526e-02  -3.5513989978465971e-02  -3.8287016329998314e-02  -4.0936703038987381e-02  -4.3639289048899986e-02  -4.7036450595196531e-02  -4.8522541901843214e-02  -5.2415031171238184e-02  -5.3583931966395860e-02  -5.2296152298403224e-02  -5.8125213943087568e-02  -4.7594695437364352e-02  -5.1658534380006442e-02  -4.5909905803314305e-02  5.2404087962374911e-03  -1.0679894550835729e-03  1.6972082646796265e-02  2.0855550912692276e-02  2.1763245236485745e-02  1.8859270976118583e-02  1.6354328592275934e-02  1.5053272174535953e-02  1.3452467794055147e-02  1.2024837136641006e-02  1.0897433683374123e-02  9.8899967104815658e-03  8.8188934951185828e-03  7.8229851021815906e-03  6.7230798065246577e-03  5.4266910415443842e-03  3.9445089729759457e-03  2.1645462303753636e-03  2.7098257493415967e-05  -2.4123011851224425e-03  -5.2342720100415014e-03  -8.3033231001197316e-03  -1.1922373909107938e-02  -1.5485300168820279e-02  -1.9618131219607982e-02  -2.3196596551170665e-02  -2.6916775747090383e-02  -3.1552263889308374e-02  -3.1008411882462786e-02  -3.8282260393813577e-02  -3.3551739228413001e-02  -3.5891651637187667e-02  -3.8816172975519148e-02  2.8198350995408193e-03  -2.6285184817736325e-03  2.7386196392219248e-02  4.2754179432997794e-02  4.7066352974173109e-02  4.6050943188039567e-02  4.3370428912146014e-02  4.3776832490599590e-02  4.2665551706983808e-02  4.1565564175690725e-02  4.1001557395008978e-02  4.0423017428080070e-02  3.9662776862172983e-02  3.8957237150860496e-02  3.8114370263511443e-02  3.6943460287215256e-02  3.5518758803412667e-02  3.3726144531024106e-02  3.1458145347243630e-02  2.8727316241129900e-02  2.5452533859358799e-02  2.1645945971016701e-02  1.7514540004584862e-02  1.2691545983624302e-02  7.8557327609254171e-03  2.3081993807550572e-03  -2.5135215748049488e-03  -9.0111761751644134e-03  -1.1545826087102782e-02  -1.9310776150601297e-02  -2.0467495045939851e-02  -2.3135116999142613e-02  -3.2497372451622375e-02  4.0680464045124876e-04  -5.1343528082030652e-03  3.4873399583182307e-02  6.4371035754494085e-02  7.2446387929877037e-02  7.3654950205798458e-02  7.0835407542686871e-02  7.2052892263432131e-02  7.2234370072495543e-02  7.1135795049216521e-02  7.1173007858947659e-02  7.1124426683028652e-02  7.0745256931985606e-02  7.0385527185475083e-02  6.9911574814399385e-02  6.8996659089954976e-02  6.7631136647680223e-02  6.5810833476460870e-02  6.3436734141988194e-02  6.0397309108722950e-02  5.6656578559747220e-02  5.2265391391931162e-02  4.7235772909268350e-02  4.1391626089801417e-02  3.5266881436822786e-02  2.8348310531310244e-02  2.1250974172809682e-02  1.3800043579756338e-02  7.0615081147606552e-03  -1.2903563936470367e-03  -7.7810699918770976e-03  -1.2103867501227248e-02  -2.6069263440035326e-02  -1.2120540846266169e-03  -7.4243662460997343e-03  3.8611140062144458e-02  8.4268263089497905e-02  9.8382561927817927e-02  1.0163058037613991e-01  9.9096846465453400e-02  9.9560565082809152e-02  1.0154950275525960e-01  1.0080659502436491e-01  1.0085872438725321e-01  1.0171657123055096e-01  1.0185714034662724e-01  1.0178212598009545e-01  1.0171698240873438e-01  1.0128147976676763e-01  1.0020055818309942e-01  9.8446799487689182e-02  9.5969754135826146e-02  9.2653077129400352e-02  8.8530989999798679e-02  8.3614262656728458e-02  7.7579046537233964e-02  7.0679441203050142e-02  6.3209190250538103e-02  5.4711991936382307e-02  4.5238181029641535e-02  3.6575248113493469e-02  2.5655692015915499e-02  1.6045898689009536e-02  4.7515614058281780e-03  -1.6928572461948641e-03  -1.9119107882722180e-02  -1.1126538949752041e-03  -8.6493450803497973e-03  3.7749723676722587e-02  9.9720520509124028e-02  1.2447333665830213e-01  1.2971520283735738e-01  1.2814432572635892e-01  1.2730283885936297e-01  1.3004586761522141e-01  1.3090390067998883e-01  1.3054009018111817e-01  1.3185908473233127e-01  1.3325074212121882e-01  1.3373364257979686e-01  1.3391113699669632e-01  1.3385422681778739e-01  1.3320859334878021e-01  1.3172562938902596e-01  1.2930336320931968e-01  1.2590845071753207e-01  1.2148172339483015e-01  1.1572947818503609e-01  1.0869434682827742e-01  1.0089765589553122e-01  9.2072878105877110e-02  8.1386180027776783e-02  7.0094804557625873e-02  5.9362764354514617e-02  4.4999477208172350e-02  3.2443660889147505e-02  1.8078044339952692e-02  7.8479238779605078e-03  -1.2128183324531715e-02  -1.2141867908349290e-04  -8.1679357802188057e-03  3.1561743912529271e-02  1.0655534198161790e-01  1.4843107722760693e-01  1.5862861143670284e-01  1.5818921410233028e-01  1.5620381948586443e-01  1.5809248550651794e-01  1.6124217637160768e-01  1.6180187018899692e-01  1.6250864069044418e-01  1.6472907049123015e-01  1.6667764013702013e-01  1.6762932958082638e-01  1.6790539107728336e-01  1.6752812425366173e-01  1.6627584429259051e-01  1.6391693803726984e-01  1.6029505737392433e-01  1.5526876833617234e-01  1.4878722863368837e-01  1.4121676194772098e-01  1.3259305482929334e-01  1.2166097086833290e-01  1.0881043281266217e-01  9.6210687100340961e-02  8.2836294482000708e-02  6.4781734849908484e-02  4.8465879230319246e-02  3.2614445722498019e-02  1.5936657543123327e-02  -6.3389893335735288e-03  -7.9712715372974954e-05  -5.6903487599086790e-03  2.0755284259116914e-02  9.9582927035985314e-02  1.6410192535164203e-01  1.8626912845929638e-01  1.8723482298287938e-01  1.8475708378016048e-01  1.8460924907822424e-01  1.8814507551021498e-01  1.9147124574620816e-01  1.9285365463459914e-01  1.9472105069216861e-01  1.9763266833211010e-01  2.0020233975547094e-01  2.0168709352425293e-01  2.0204116021620536e-01  2.0121850764072824e-01  1.9910402191185850e-01  1.9551265532346088e-01  1.9041524150049302e-01  1.8387068208711610e-01  1.7576381006594846e-01  1.6525461589131651e-01  1.5183026849932055e-01  1.3795707904530230e-01  1.2445003396520993e-01  1.0685212865746604e-01  8.4818823931771217e-02  6.5291700993839408e-02  4.7975749962633256e-02  2.3151431701408248e-02  -2.4484388653447206e-03  -2.2724006238980356e-03  -2.2750450854445146e-03  7.8616549351090796e-03  7.9358477362323571e-02  1.6387274311248859e-01  2.0801984912702534e-01  2.1745452849145552e-01  2.1533685379715800e-01  2.1366548809581068e-01  2.1582747871611210e-01  2.2085802814517144e-01  2.2533704644977343e-01  2.2829724106210941e-01  2.3120055680254872e-01  2.3440284652097670e-01  2.3706990194093869e-01  2.3852738942723462e-01  2.3849545