<?xml version="1.0"?>
<VTKFile type="UnstructuredGrid"  version="0.1"  >
<UnstructuredGrid>
<Piece  NumberOfPoints="1089" NumberOfCells="1024">
<Points>
<DataArray  type="Float64"  NumberOfComponents="3"  format="ascii">0 0 0  0.03125 0 0  0.0625 0 0  0.09375 0 0  0.125 0 0  0.15625 0 0  0.1875 0 0  0.21875 0 0  0.25 0 0  0.28125 0 0  0.3125 0 0  0.34375 0 0  0.375 0 0  0.40625 0 0  0.4375 0 0  0.46875 0 0  0.5 0 0  0.53125 0 0  0.5625 0 0  0.59375 0 0  0.625 0 0  0.65625 0 0  0.6875 0 0  0.71875 0 0  0.75 0 0  0.78125 0 0  0.8125 0 0  0.84375 0 0  0.875 0 0  0.90625 0 0  0.9375 0 0  0.96875 0 0  1 0 0  0 0.03125 0  0.03125 0.03125 0  0.0625 0.03125 0  0.09375 0.03125 0  0.125 0.03125 0  0.15625 0.03125 0  0.1875 0.03125 0  0.21875 0.03125 0  0.25 0.03125 0  0.28125 0.03125 0  0.3125 0.03125 0  0.34375 0.03125 0  0.375 0.03125 0  0.40625 0.03125 0  0.4375 0.03125 0  0.46875 0.03125 0  0.5 0.03125 0  0.53125 0.03125 0  0.5625 0.03125 0  0.59375 0.03125 0  0.625 0.03125 0  0.65625 0.03125 0  0.6875 0.03125 0  0.71875 0.03125 0  0.75 0.03125 0  0.78125 0.03125 0  0.8125 0.03125 0  0.84375 0.03125 0  0.875 0.03125 0  0.90625 0.03125 0  0.9375 0.03125 0  0.96875 0.03125 0  1 0.03125 0  0 0.0625 0  0.03125 0.0625 0  0.0625 0.0625 0  0.09375 0.0625 0  0.125 0.0625 0  0.15625 0.0625 0  0.1875 0.0625 0  0.21875 0.0625 0  0.25 0.0625 0  0.28125 0.0625 0  0.3125 0.0625 0  0.34375 0.0625 0  0.375 0.0625 0  0.40625 0.0625 0  0.4375 0.0625 0  0.46875 0.0625 0  0.5 0.0625 0  0.53125 0.0625 0  0.5625 0.0625 0  0.59375 0.0625 0  0.625 0.0625 0  0.65625 0.0625 0  0.6875 0.0625 0  0.71875 0.0625 0  0.75 0.0625 0  0.78125 0.0625 0  0.8125 0.0625 0  0.84375 0.0625 0  0.875 0.0625 0  0.90625 0.0625 0  0.9375 0.0625 0  0.96875 0.0625 0  1 0.0625 0  0 0.09375 0  0.03125 0.09375 0  0.0625 0.09375 0  0.09375 0.09375 0  0.125 0.09375 0  0.15625 0.09375 0  0.1875 0.09375 0  0.21875 0.09375 0  0.25 0.09375 0  0.28125 0.09375 0  0.3125 0.09375 0  0.34375 0.09375 0  0.375 0.09375 0  0.40625 0.09375 0  0.4375 0.09375 0  0.46875 0.09375 0  0.5 0.09375 0  0.53125 0.09375 0  0.5625 0.09375 0  0.59375 0.09375 0  0.625 0.09375 0  0.65625 0.09375 0  0.6875 0.09375 0  0.71875 0.09375 0  0.75 0.09375 0  0.78125 0.09375 0  0.8125 0.09375 0  0.84375 0.09375 0  0.875 0.09375 0  0.90625 0.09375 0  0.9375 0.09375 0  0.96875 0.09375 0  1 0.09375 0  0 0.125 0  0.03125 0.125 0  0.0625 0.125 0  0.09375 0.125 0  0.125 0.125 0  0.15625 0.125 0  0.1875 0.125 0  0.21875 0.125 0  0.25 0.125 0  0.28125 0.125 0  0.3125 0.125 0  0.34375 0.125 0  0.375 0.125 0  0.40625 0.125 0  0.4375 0.125 0  0.46875 0.125 0  0.5 0.125 0  0.53125 0.125 0  0.5625 0.125 0  0.59375 0.125 0  0.625 0.125 0  0.65625 0.125 0  0.6875 0.125 0  0.71875 0.125 0  0.75 0.125 0  0.78125 0.125 0  0.8125 0.125 0  0.84375 0.125 0  0.875 0.125 0  0.90625 0.125 0  0.9375 0.125 0  0.96875 0.125 0  1 0.125 0  0 0.15625 0  0.03125 0.15625 0  0.0625 0.15625 0  0.09375 0.15625 0  0.125 0.15625 0  0.15625 0.15625 0  0.1875 0.15625 0  0.21875 0.15625 0  0.25 0.15625 0  0.28125 0.15625 0  0.3125 0.15625 0  0.34375 0.15625 0  0.375 0.15625 0  0.40625 0.15625 0  0.4375 0.15625 0  0.46875 0.15625 0  0.5 0.15625 0  0.53125 0.15625 0  0.5625 0.15625 0  0.59375 0.15625 0  0.625 0.15625 0  0.65625 0.15625 0  0.6875 0.15625 0  0.71875 0.15625 0  0.75 0.15625 0  0.78125 0.15625 0  0.8125 0.15625 0  0.84375 0.15625 0  0.875 0.15625 0  0.90625 0.15625 0  0.9375 0.15625 0  0.96875 0.15625 0  1 0.15625 0  0 0.1875 0  0.03125 0.1875 0  0.0625 0.1875 0  0.09375 0.1875 0  0.125 0.1875 0  0.15625 0.1875 0  0.1875 0.1875 0  0.21875 0.1875 0  0.25 0.1875 0  0.28125 0.1875 0  0.3125 0.1875 0  0.34375 0.1875 0  0.375 0.1875 0  0.40625 0.1875 0  0.4375 0.1875 0  0.46875 0.1875 0  0.5 0.1875 0  0.53125 0.1875 0  0.5625 0.1875 0  0.59375 0.1875 0  0.625 0.1875 0  0.65625 0.1875 0  0.6875 0.1875 0  0.71875 0.1875 0  0.75 0.1875 0  0.78125 0.1875 0  0.8125 0.1875 0  0.84375 0.1875 0  0.875 0.1875 0  0.90625 0.1875 0  0.9375 0.1875 0  0.96875 0.1875 0  1 0.1875 0  0 0.21875 0  0.03125 0.21875 0  0.0625 0.21875 0  0.09375 0.21875 0  0.125 0.21875 0  0.15625 0.21875 0  0.1875 0.21875 0  0.21875 0.21875 0  0.25 0.21875 0  0.28125 0.21875 0  0.3125 0.21875 0  0.34375 0.21875 0  0.375 0.21875 0  0.40625 0.21875 0  0.4375 0.21875 0  0.46875 0.21875 0  0.5 0.21875 0  0.53125 0.21875 0  0.5625 0.21875 0  0.59375 0.21875 0  0.625 0.21875 0  0.65625 0.21875 0  0.6875 0.21875 0  0.71875 0.21875 0  0.75 0.21875 0  0.78125 0.21875 0  0.8125 0.21875 0  0.84375 0.21875 0  0.875 0.21875 0  0.90625 0.21875 0  0.9375 0.21875 0  0.96875 0.21875 0  1 0.21875 0  0 0.25 0  0.03125 0.25 0  0.0625 0.25 0  0.09375 0.25 0  0.125 0.25 0  0.15625 0.25 0  0.1875 0.25 0  0.21875 0.25 0  0.25 0.25 0  0.28125 0.25 0  0.3125 0.25 0  0.34375 0.25 0  0.375 0.25 0  0.40625 0.25 0  0.4375 0.25 0  0.46875 0.25 0  0.5 0.25 0  0.53125 0.25 0  0.5625 0.25 0  0.59375 0.25 0  0.625 0.25 0  0.65625 0.25 0  0.6875 0.25 0  0.71875 0.25 0  0.75 0.25 0  0.78125 0.25 0  0.8125 0.25 0  0.84375 0.25 0  0.875 0.25 0  0.90625 0.25 0  0.9375 0.25 0  0.96875 0.25 0  1 0.25 0  0 0.28125 0  0.03125 0.28125 0  0.0625 0.28125 0  0.09375 0.28125 0  0.125 0.28125 0  0.15625 0.28125 0  0.1875 0.28125 0  0.21875 0.28125 0  0.25 0.28125 0  0.28125 0.28125 0  0.3125 0.28125 0  0.34375 0.28125 0  0.375 0.28125 0  0.40625 0.28125 0  0.4375 0.28125 0  0.46875 0.28125 0  0.5 0.28125 0  0.53125 0.28125 0  0.5625 0.28125 0  0.59375 0.28125 0  0.625 0.28125 0  0.65625 0.28125 0  0.6875 0.28125 0  0.71875 0.28125 0  0.75 0.28125 0  0.78125 0.28125 0  0.8125 0.28125 0  0.84375 0.28125 0  0.875 0.28125 0  0.90625 0.28125 0  0.9375 0.28125 0  0.96875 0.28125 0  1 0.28125 0  0 0.3125 0  0.03125 0.3125 0  0.0625 0.3125 0  0.09375 0.3125 0  0.125 0.3125 0  0.15625 0.3125 0  0.1875 0.3125 0  0.21875 0.3125 0  0.25 0.3125 0  0.28125 0.3125 0  0.3125 0.3125 0  0.34375 0.3125 0  0.375 0.3125 0  0.40625 0.3125 0  0.4375 0.3125 0  0.46875 0.3125 0  0.5 0.3125 0  0.53125 0.3125 0  0.5625 0.3125 0  0.59375 0.3125 0  0.625 0.3125 0  0.65625 0.3125 0  0.6875 0.3125 0  0.71875 0.3125 0  0.75 0.3125 0  0.78125 0.3125 0  0.8125 0.3125 0  0.84375 0.3125 0  0.875 0.3125 0  0.90625 0.3125 0  0.9375 0.3125 0  0.96875 0.3125 0  1 0.3125 0  0 0.34375 0  0.03125 0.34375 0  0.0625 0.34375 0  0.09375 0.34375 0  0.125 0.34375 0  0.15625 0.34375 0  0.1875 0.34375 0  0.21875 0.34375 0  0.25 0.34375 0  0.28125 0.34375 0  0.3125 0.34375 0  0.34375 0.34375 0  0.375 0.34375 0  0.40625 0.34375 0  0.4375 0.34375 0  0.46875 0.34375 0  0.5 0.34375 0  0.53125 0.34375 0  0.5625 0.34375 0  0.59375 0.34375 0  0.625 0.34375 0  0.65625 0.34375 0  0.6875 0.34375 0  0.71875 0.34375 0  0.75 0.34375 0  0.78125 0.34375 0  0.8125 0.34375 0  0.84375 0.34375 0  0.875 0.34375 0  0.90625 0.34375 0  0.9375 0.34375 0  0.96875 0.34375 0  1 0.34375 0  0 0.375 0  0.03125 0.375 0  0.0625 0.375 0  0.09375 0.375 0  0.125 0.375 0  0.15625 0.375 0  0.1875 0.375 0  0.21875 0.375 0  0.25 0.375 0  0.28125 0.375 0  0.3125 0.375 0  0.34375 0.375 0  0.375 0.375 0  0.40625 0.375 0  0.4375 0.375 0  0.46875 0.375 0  0.5 0.375 0  0.53125 0.375 0  0.5625 0.375 0  0.59375 0.375 0  0.625 0.375 0  0.65625 0.375 0  0.6875 0.375 0  0.71875 0.375 0  0.75 0.375 0  0.78125 0.375 0  0.8125 0.375 0  0.84375 0.375 0  0.875 0.375 0  0.90625 0.375 0  0.9375 0.375 0  0.96875 0.375 0  1 0.375 0  0 0.40625 0  0.03125 0.40625 0  0.0625 0.40625 0  0.09375 0.40625 0  0.125 0.40625 0  0.15625 0.40625 0  0.1875 0.40625 0  0.21875 0.40625 0  0.25 0.40625 0  0.28125 0.40625 0  0.3125 0.40625 0  0.34375 0.40625 0  0.375 0.40625 0  0.40625 0.40625 0  0.4375 0.40625 0  0.46875 0.40625 0  0.5 0.40625 0  0.53125 0.40625 0  0.5625 0.40625 0  0.59375 0.40625 0  0.625 0.40625 0  0.65625 0.40625 0  0.6875 0.40625 0  0.71875 0.40625 0  0.75 0.40625 0  0.78125 0.40625 0  0.8125 0.40625 0  0.84375 0.40625 0  0.875 0.40625 0  0.90625 0.40625 0  0.9375 0.40625 0  0.96875 0.40625 0  1 0.40625 0  0 0.4375 0  0.03125 0.4375 0  0.0625 0.4375 0  0.09375 0.4375 0  0.125 0.4375 0  0.15625 0.4375 0  0.1875 0.4375 0  0.21875 0.4375 0  0.25 0.4375 0  0.28125 0.4375 0  0.3125 0.4375 0  0.34375 0.4375 0  0.375 0.4375 0  0.40625 0.4375 0  0.4375 0.4375 0  0.46875 0.4375 0  0.5 0.4375 0  0.53125 0.4375 0  0.5625 0.4375 0  0.59375 0.4375 0  0.625 0.4375 0  0.65625 0.4375 0  0.6875 0.4375 0  0.71875 0.4375 0  0.75 0.4375 0  0.78125 0.4375 0  0.8125 0.4375 0  0.84375 0.4375 0  0.875 0.4375 0  0.90625 0.4375 0  0.9375 0.4375 0  0.96875 0.4375 0  1 0.4375 0  0 0.46875 0  0.03125 0.46875 0  0.0625 0.46875 0  0.09375 0.46875 0  0.125 0.46875 0  0.15625 0.46875 0  0.1875 0.46875 0  0.21875 0.46875 0  0.25 0.46875 0  0.28125 0.46875 0  0.3125 0.46875 0  0.34375 0.46875 0  0.375 0.46875 0  0.40625 0.46875 0  0.4375 0.46875 0  0.46875 0.46875 0  0.5 0.46875 0  0.53125 0.46875 0  0.5625 0.46875 0  0.59375 0.46875 0  0.625 0.46875 0  0.65625 0.46875 0  0.6875 0.46875 0  0.71875 0.46875 0  0.75 0.46875 0  0.78125 0.46875 0  0.8125 0.46875 0  0.84375 0.46875 0  0.875 0.46875 0  0.90625 0.46875 0  0.9375 0.46875 0  0.96875 0.46875 0  1 0.46875 0  0 0.5 0  0.03125 0.5 0  0.0625 0.5 0  0.09375 0.5 0  0.125 0.5 0  0.15625 0.5 0  0.1875 0.5 0  0.21875 0.5 0  0.25 0.5 0  0.28125 0.5 0  0.3125 0.5 0  0.34375 0.5 0  0.375 0.5 0  0.40625 0.5 0  0.4375 0.5 0  0.46875 0.5 0  0.5 0.5 0  0.53125 0.5 0  0.5625 0.5 0  0.59375 0.5 0  0.625 0.5 0  0.65625 0.5 0  0.6875 0.5 0  0.71875 0.5 0  0.75 0.5 0  0.78125 0.5 0  0.8125 0.5 0  0.84375 0.5 0  0.875 0.5 0  0.90625 0.5 0  0.9375 0.5 0  0.96875 0.5 0  1 0.5 0  0 0.53125 0  0.03125 0.53125 0  0.0625 0.53125 0  0.09375 0.53125 0  0.125 0.53125 0  0.15625 0.53125 0  0.1875 0.53125 0  0.21875 0.53125 0  0.25 0.53125 0  0.28125 0.53125 0  0.3125 0.53125 0  0.34375 0.53125 0  0.375 0.53125 0  0.40625 0.53125 0  0.4375 0.53125 0  0.46875 0.53125 0  0.5 0.53125 0  0.53125 0.53125 0  0.5625 0.53125 0  0.59375 0.53125 0  0.625 0.53125 0  0.65625 0.53125 0  0.6875 0.53125 0  0.71875 0.53125 0  0.75 0.53125 0  0.78125 0.531
[...]
<PointData  Scalars="v_sol"> 
<DataArray  type="Float64"  Name="v_sol"  format="ascii">3.3707949449932603e-06  2.5556746904709088e-04  5.5658158437061549e-04  3.7413330392937675e-04  3.7812353630201767e-04  3.4560551561420310e-05  -2.7261334491279516e-04  1.0531560574689638e-03  1.0068538639901802e-03  -1.5072102693335239e-03  -5.5237704585206094e-03  -8.7067778364443692e-03  -9.3608354084321697e-03  -7.7976247412894616e-03  -4.8873271707777820e-03  -2.3094788264855139e-03  -3.3529089685221101e-04  2.8704134757855816e-03  4.6996385465439853e-03  5.7668229609333394e-03  6.7206383860573633e-03  7.3174720597742795e-03  7.3577445250141409e-03  5.8580104717867549e-03  3.5567512856159969e-03  1.0585789019439214e-03  -6.3885782374152231e-04  -2.5535799296805867e-03  -2.7673409497970349e-03  -1.2907306272455683e-03  -7.5849344893714717e-04  -1.5305311837183425e-04  -7.4950535503913638e-06  2.5741101823082590e-04  -1.4164392686549516e-03  -2.9523474931463273e-03  -2.2271243816973972e-03  -1.3059882484527832e-03  -4.8572841310599711e-04  -3.3053855391052564e-04  -1.9369398648690546e-03  -2.6763891879676982e-03  4.5566898613632091e-03  1.9719394303630310e-02  3.2824556137627407e-02  4.0333048925234587e-02  4.1303469261937613e-02  3.6176189914420308e-02  2.6148903933273477e-02  1.2416487482148816e-02  -3.3037645674449728e-03  -1.9210378357893472e-02  -3.5332677076587299e-02  -4.8680640640543692e-02  -5.4549628284417416e-02  -4.8617378271844022e-02  -3.1306075756562912e-02  -1.1851087206586340e-02  2.8000619165830447e-03  1.1975653510539558e-02  1.5230164040055796e-02  1.2165386111744872e-02  6.6473745606610169e-03  3.0341874786252248e-03  8.5814432607720726e-04  -2.7058339686343791e-04  3.7092989731174719e-04  -6.4430024916208783e-03  -9.5390218049302856e-03  -6.5830696296522830e-03  -1.5580381457997580e-03  2.4825199821251255e-04  5.1551339975625858e-04  1.0854266570515383e-02  4.1534293147397851e-02  7.9149436719182231e-02  1.0624338163939037e-01  1.1581754078696396e-01  1.0850023443670873e-01  9.0085127674138621e-02  6.6229778129227021e-02  4.0418594916203615e-02  1.4133404468659343e-02  -1.2941631880615310e-02  -4.2357319022025303e-02  -7.3459316259786245e-02  -1.0407204603337832e-01  -1.2824138288448489e-01  -1.3604935379937330e-01  -1.1850715109751891e-01  -7.7081065827852430e-02  -3.1339897670421731e-02  -1.4065591868202684e-03  1.4799082270209055e-02  2.3041839328650039e-02  2.0238684547721604e-02  1.1871054132594891e-02  5.6471572892030529e-03  1.3149866551627072e-04  -1.6797733325718119e-04  -1.5514407952028830e-02  -1.6896832335767973e-02  -5.7438953484999370e-03  2.7514613915263805e-03  8.4594373434857279e-03  3.5913383448389964e-02  9.0996773443176998e-02  1.4584365489807025e-01  1.7733980705144176e-01  1.8034813453436285e-01  1.6204598806340015e-01  1.3345954307230576e-01  1.0243673953858326e-01  7.2276455185426081e-02  4.3121694386867734e-02  1.3927702785343903e-02  -1.6192179229788242e-02  -4.7656194480994354e-02  -8.2285456282416528e-02  -1.2073525314163229e-01  -1.6098876205511622e-01  -1.9540992311597466e-01  -2.0896288697439294e-01  -1.8578725876570013e-01  -1.2425633982703610e-01  -5.1616641613810847e-02  -5.2233092159895732e-03  1.3863239531187621e-02  2.2260309118231906e-02  1.9790599979935132e-02  1.2073067328383638e-02  8.9067581689571389e-04  -2.1663279149029308e-03  -2.9089971113601273e-02  -1.8749082456443182e-02  3.1143169359083918e-03  1.7596183567213285e-02  5.9390437071904237e-02  1.3451490909679725e-01  2.0299672141381808e-01  2.3524475263981570e-01  2.2987347532490690e-01  2.0210467999422826e-01  1.6722709451372314e-01  1.3293385079952841e-01  1.0073679893151236e-01  6.9950531940031466e-02  4.0030571010519093e-02  1.0752548258299388e-02  -1.8461652308182020e-02  -4.8864134272418557e-02  -8.0839955844387065e-02  -1.1547959915202052e-01  -1.5474351383314647e-01  -1.9956330533132266e-01  -2.4397011375139188e-01  -2.6837649128007951e-01  -2.4621715468438174e-01  -1.6776048823501355e-01  -6.6245380925424646e-02  -2.0033541396604691e-03  1.5681929870680015e-02  2.1471463444518106e-02  1.6977559867524659e-02  1.6990732151940071e-03  -7.6455636906001580e-03  -4.2142356162692407e-02  -9.0735789497172793e-03  2.1806073810175419e-02  7.2379428279948116e-02  1.6283422810018192e-01  2.4581285954890980e-01  2.8111291554063933e-01  2.6954257320800584e-01  2.3486325417079609e-01  1.9666071546043695e-01  1.6166309091431191e-01  1.2945251925102361e-01  9.8721332749886717e-02  6.8898932457621187e-02  3.9458408221503191e-02  9.5947289432338767e-03  -2.1216593823788554e-02  -5.2583724625059579e-02  -8.4274859296999460e-02  -1.1587239687617035e-01  -1.4748915802177284e-01  -1.8213660604677123e-01  -2.2587321531944127e-01  -2.7829294503802421e-01  -3.1572431995361161e-01  -2.9610054068303476e-01  -1.9880049027402094e-01  -6.7563452443036714e-02  8.3734723992852558e-03  1.8464056963041920e-02  2.0704599609557096e-02  1.2476594702438481e-03  -1.7887043083274861e-02  -4.4584004380913471e-02  1.0729412664013480e-02  7.0787217588866982e-02  1.7084161244223048e-01  2.7140710936907514e-01  3.1740442241005623e-01  3.0484412897465751e-01  2.6600039505744144e-01  2.2653932668133606e-01  1.9261635470402855e-01  1.6194310690798669e-01  1.3237774257388077e-01  1.0281315720076471e-01  7.2516225057324218e-02  4.1252429079738050e-02  9.4202539724857308e-03  -2.2584371238931512e-02  -5.5178005375805819e-02  -8.8661111836645795e-02  -1.2262335034550684e-01  -1.5542761933634555e-01  -1.8470438294435940e-01  -2.1256931259785711e-01  -2.5092166123644638e-01  -3.0825868781800164e-01  -3.5614597060099540e-01  -3.3175877914263796e-01  -2.0563266909632519e-01  -4.6590347975549402e-02  2.2483449280952261e-02  1.8228175107850457e-02  4.7585527999696228e-03  -2.5830028179573361e-02  -3.4267254620701619e-02  5.0540840480698707e-02  1.5598775757103789e-01  2.7519962985483132e-01  3.4333359613077302e-01  3.3887603518201670e-01  2.9830085973330145e-01  2.5787030965927460e-01  2.2533936858187878e-01  1.9618902920054265e-01  1.6713527395322211e-01  1.3665247466109245e-01  1.0470033227542777e-01  7.2343679387763399e-02  4.0448688201229446e-02  8.8983998546474218e-03  -2.2934419036951596e-02  -5.5204227519760528e-02  -8.8074778423126929e-02  -1.2217620725261574e-01  -1.5807571345988639e-01  -1.9394710883755800e-01  -2.2381393620790793e-01  -2.4631208536180743e-01  -2.7941084586010650e-01  -3.4169832690214269e-01  -3.9375938628291945e-01  -3.4681553052332870e-01  -1.7587510527113781e-01  -3.4092101164435742e-03  2.6321255682757661e-02  1.1032387214440281e-03  -2.7946481367228850e-02  -6.9783298338225372e-03  1.1791189966396129e-01  2.5196857374795234e-01  3.5194517144732729e-01  3.7077884176748171e-01  3.3310071583154133e-01  2.9025058803661230e-01  2.5832839978852068e-01  2.3032629557985831e-01  2.0120550140112989e-01  1.6950858369666413e-01  1.3629522756977624e-01  1.0370151905672317e-01  7.2134653508233879e-02  4.0665715446623805e-02  8.7781721075594465e-03  -2.3454155574536756e-02  -5.5996700618982730e-02  -8.8642274994639086e-02  -1.2113112594504573e-01  -1.5423246812566641e-01  -1.9048731348505515e-01  -2.2960022748911801e-01  -2.6153599969078817e-01  -2.8023449876666084e-01  -3.1227423692813161e-01  -3.8309455090616884e-01  -4.2552878855719040e-01  -3.2562251838667189e-01  -9.9319418874280405e-02  3.6378437752855479e-02  -2.3448950745722612e-03  -2.3558069560412939e-02  4.3102656797778346e-02  1.9942098129343264e-01  3.3297658424806414e-01  3.9216466753673035e-01  3.7107840555281119e-01  3.2446558366761957e-01  2.9056643735147608e-01  2.6381720077327508e-01  2.3483732403263655e-01  2.0243727872172365e-01  1.6870966674046983e-01  1.3646833834621711e-01  1.0543898422024581e-01  7.3896282540464722e-02  4.1710586690206303e-02  9.2694521813731362e-03  -2.3433759296066340e-02  -5.6447185520756150e-02  -8.9938470935433501e-02  -1.2356612717631399e-01  -1.5603953832934417e-01  -1.8747203943624327e-01  -2.2295061724259727e-01  -2.6460400234845133e-01  -2.9701410335937312e-01  -3.1204638891863395e-01  -3.5189475124334291e-01  -4.3289443220834911e-01  -4.3420477649057171e-01  -2.4001785572960085e-01  5.5606100385834373e-03  1.6764084574607707e-02  -9.2964425045687377e-03  1.0986870829854910e-01  2.7737148995884769e-01  3.8874660354203072e-01  4.0597871534106911e-01  3.6407588771365851e-01  3.2269788550602924e-01  2.9602337344901641e-01  2.6860935469076547e-01  2.3599722499546122e-01  2.0201971909627822e-01  1.6994917534519538e-01  1.3916508501460922e-01  1.0731124199823219e-01  7.4695653370781934e-02  4.2219455924552174e-02  9.7031553447566449e-03  -2.2972189295259904e-02  -5.5871717341534087e-02  -8.9127699250521983e-02  -1.2329022227800562e-01  -1.5840234101111739e-01  -1.9168638550587511e-01  -2.2181667318089685e-01  -2.5734089813903360e-01  -3.0130613532860717e-01  -3.2966226867729143e-01  -3.4326508382039994e-01  -4.0528438986904269e-01  -4.7924378227125863e-01  -3.7712262834178878e-01  -7.4387086609003866e-02  4.1989985173998871e-02  1.2358584141913719e-02  1.8195910004945329e-01  3.4133665154189913e-01  4.2240831270774232e-01  4.0774608319451378e-01  3.6009396392884313e-01  3.2675335664211830e-01  3.0183733631500176e-01  2.7071381841244335e-01  2.3603435101360720e-01  2.0363298325205736e-01  1.7288995380426211e-01  1.4083152995817860e-01  1.0783666875110247e-01  7.5348983450641713e-02  4.2986722986424676e-02  1.0392532101199076e-02  -2.2434049774104545e-02  -5.5557346272651152e-02  -8.8775137396068696e-02  -1.2193129236743611e-01  -1.5628727445401161e-01  -1.9291488228787632e-01  -2.2702300628434541e-01  -2.5637922865639118e-01  -2.9482299763410191e-01  -3.3954605337477228e-01  -3.5761743909329413e-01  -3.8381531126988694e-01  -4.7598665979777732e-01  -4.7630281082920251e-01  -1.8972439284169318e-01  6.0272484315446517e-02  3.4965046163051669e-02  2.4936026464434308e-01  3.8901321480028922e-01  4.4194050376215716e-01  4.0704519728378841e-01  3.6095760303437563e-01  3.3301955639630615e-01  3.0589942922884267e-01  2.7151101695083785e-01  2.3748693572517546e-01  2.0659051902283732e-01  1.7476273903397471e-01  1.4148732758005431e-01  1.0894290355824010e-01  7.6799013792503132e-02  4.4247130707950624e-02  1.1446048811706412e-02  -2.1550488487189157e-02  -5.4813795418965930e-02  -8.8534705584897899e-02  -1.2236359626725402e-01  -1.5544090055135426e-01  -1.9000225525117798e-01  -2.2813489055155653e-01  -2.6175598068496575e-01  -2.9168407938987378e-01  -3.3703368184784738e-01  -3.7469498095165965e-01  -3.8461662702547134e-01  -4.5380368809928912e-01  -5.3098993640241277e-01  -3.1546790587614548e-01  6.5791169958468093e-02  5.2646941053868496e-02  3.0569437261311200e-01  4.2266082558766888e-01  4.5397726932370686e-01  4.0772702078718753e-01  3.6496040591197926e-01  3.3904722788522568e-01  3.0846132902374862e-01  2.7275447662247487e-01  2.4014508846064853e-01  2.0897131243153375e-01  1.7577932592781190e-01  1.4274805792668621e-01  1.1070070841212000e-01  7.8203438503368916e-02  4.5368555744210184e-02  1.2570275441926538e-02  -2.0411240791720707e-02  -5.3621841000361992e-02  -8.7123192403188790e-02  -1.2150117542287743e-01  -1.5616222851817482e-01  -1.8931613236987749e-01  -2.2510125854648064e-01  -2.6454188081608698e-01  -2.9558235768729141e-01  -3.3133505890586962e-01  -3.8232871077084268e-01  -4.0024809292691316e-01  -4.3630190628170396e-01  -5.4985824050163523e-01  -4.2933896823401912e-01  5.3358248100392650e-02  6.1824208868209482e-02  3.4809209211753100e-01  4.4542631897277835e-01  4.6233909686217994e-01  4.1016439961478512e-01  3.7006150791488412e-01  3.4392669839123918e-01  3.1049529679724452e-01  2.7474712329673745e-01  2.4280846774632955e-01  2.1060057014361122e-01  1.7699818416709182e-01  1.4448989882624363e-01  1.1223482721444673e-01  7.9366279320575633e-02  4.6636972786931193e-02  1.3931213359683923e-02  -1.9059436257079655e-02  -5.2313266280371910e-02  -8.5792445072686005e-02  -1.1950487250618165e-01  -1.5461488848370378e-01  -1.8993172411819920e-01  -2.2340251786936235e-01  -2.6234046706423109e-01  -3.0071121571606019e-01  -3.3009701009533116e-01  -3.8041432192933627e-01  -4.1819988373435740e-01  -4.3161327190523130e-01  -5.4708468578325165e-01  -5.2182911756846306e-01  2.7356144840480070e-02  6.1637939386250534e-02  3.7548858187088563e-01  4.5999872877614967e-01  4.6834633448911978e-01  4.1369656900198359e-01  3.7477729066658599e-01  3.4769830382227440e-01  3.1246422864292706e-01  2.7697170503954449e-01  2.4496828145342248e-01  2.1199894044555787e-01  1.7847215804204902e-01  1.4609807994655058e-01  1.1351864436850380e-01  8.0696646102375522e-02  4.8193348136107983e-02  1.5519245953787598e-02  -1.7410524853960052e-02  -5.0552376555540089e-02  -8.4149595102517044e-02  -1.1800328945887911e-01  -1.5210313574558468e-01  -1.8822844339458775e-01  -2.2345460027008718e-01  -2.5879166475145987e-01  -3.0169282033806344e-01  -3.3374210994539649e-01  -3.7436467420927905e-01  -4.3025608286495987e-01  -4.3812956919221691e-01  -5.3384135999557802e-01  -5.9178984319531014e-01  -6.4319331510391499e-03  5.4087900318897743e-02  3.8702590942847298e-01  4.6776244536221284e-01  4.7260909414042318e-01  4.1726302241133312e-01  3.7855823680497297e-01  3.5042145711081180e-01  3.1441686383754813e-01  2.7893475693998643e-01  2.4666840443436786e-01  2.1330331690492094e-01  1.7988168140110292e-01  1.4745084093306188e-01  1.1478899253038134e-01  8.2169903929498522e-02  4.9786597753017990e-02  1.7201063255519913e-02  -1.5519635141586255e-02  -4.8446286592555302e-02  -8.1768927902875696e-02  -1.1571824617447504e-01  -1.4997483095144867e-01  -1.8501656683752973e-01  -2.2207026649893161e-01  -2.5671284676557354e-01  -2.9804041038093260e-01  -3.3807057653592110e-01  -3.6923933596206487e-01  -4.3348946111383269e-01  -4.5090647258095545e-01  -5.1634337404193198e-01  -6.4230408887048018e-01  -4.3330421969656627e-02  3.9684180259333547e-02  3.8298692793626254e-01  4.6943998245554408e-01  4.7491873629408060e-01  4.2065672043728303e-01  3.8091009719897490e-01  3.5227273784231011e-01  3.1615286556077682e-01  2.8045767603420180e-01  2.4791237391845700e-01  2.1447267351281579e-01  1.8104245101330968e-01  1.4858594459970448e-01  1.1603558997671515e-01  8.3601158524950786e-02  5.1386277572603625e-02  1.9068381948789653e-02  -1.3367126308193764e-02  -4.6017170377127582e-02  -7.9046745885285860e-02  -1.1259545563374886e-01  -1.4684996814332427e-01  -1.8172459200129451e-01  -2.1833230082873276e-01  -2.5480027340199723e-01  -2.9275919736518202e-01  -3.3864723061838642e-01  -3.6711504727641314e-01  -4.2860225108417710e-01  -4.6481188060718859e-01  -4.9780566380247010e-01  -6.7641375592370578e-01  -8.1708051397956324e-02  1.8906544028464419e-02  3.6337864864242997e-01  4.6607178152646433e-01  4.7386495282857849e-01  4.2463943307980478e-01  3.8155241609104718e-01  3.5326813777164190e-01  3.1758401704699946e-01  2.8150431640602669e-01  2.4863968923821608e-01  2.1537769463952186e-01  1.8193697457887592e-01  1.4944816007350253e-01  1.1715721448136808e-01  8.4938410266642381e-02  5.2978798608432125e-02  2.1075975380024571e-02  -1.0964665449447171e-02  -4.3217172453492526e-02  -7.5767656076493758e-02  -1.0902275571092443e-01  -1.4271449768789454e-01  -1.7747354187223385e-01  -2.1365858496691356e-01  -2.5053250234067659e-01  -2.8789598401430438e-01  -3.3423785452342836e-01  -3.6629515492229442e-01  -4.1874425247062369e-01  -4.7525338076111917e-01  -4.8016343101746750e-01  -6.9583854497502318e-01  -1.2217982686432206e-01  -2.7592982914321608e-03  3.2639211960666398e-01  4.5680217101308829e-01  4.6956263858895808e-01  4.2841571456370897e-01  3.8176302388085670e-01  3.5260184370279152e-01  3.1894841842779625e-01  2.8205323252031850e-01  2.4881969650538246e-01  2.1587363228929932e-01  1.8251178572240226e-01  1.4997900948843421e-01  1.1801804172717678e-01  8.6179886451849486e-02  5.4555909548654705e-02  2.3126768649863835e-02  -8.3774281759088024e-03  -4.0034876714934588e-02  -7.1933678159493183e-02  -1.0466657607300013e-01  -1.3784243751827349e-01  -1.7187244283334269e-01  -2.0811162716292789e-01  -2.4395906535994902e-01  -2.8209502603452186e-01  -3.2716600491589970e-01  -3.6247682032043393e-01  -4.0830039440257315e-01  -4.7802215220226502e-01  -4.6545567601151844e-01  -7.0168602421833426e-01  -1.6444802687952864e-01  -1.9741648819214926e-02  2.7215995797543502e-01  4.3790541094446322e-01  4.6310255127258582e-01  4.3038399853448833e-01  3.8319490852482702e-01  3.5027767517532588e-01  3.1951124720784990e-01  2.8267588116296610e-01  2.4825419343357713e-01  2.1581632854190008e-01  1.8276801350235097e-01  1.5015187785983505e-01  1.1843959818979270e-01  8.7150554136965874e-02  5.6079566111041590e-02  2.5228550477041561e-02  -5.5808205343369248e-03  -3.6442310222692710e-02  -6.7647066194666872e-02  -9.9633586817022488e-02  -1.3181790803611515e-01  -1.6526028523026079e-01  -2.0099740352069964e-01  -2.3576807004653530e-01  -2.7392392237826935e-01  -3.1897129583094863e-01  -3.5330996642343543e-01  -3.9908763335717889e-01  -4.7174826716724683e-01  -4.5406994395939809e-01  -6.9678768791926304e-01  -2.0436664201047208e-01  -2.9196717009344370e-02  2.0460510950599980e-01  4.0435189851158904e-01  4.5386779007088551e-01  4.3040272616353004e-01  3.8580070697922197e-01  3.4792669546699428e-01  3.1810448481727321e-01  2.8353464269193046e-01  2.4748011709197204e-01  2.1465146121029149e-01  1.8246390834029874e-01  1.5007369998702802e-01  1.1844924956801617e-01  8.7644808958139142e-02  5.7310983058217045e-02  2.7255609086516686e-02  -2.6798338741105651e-03  -3.2634607251381606e-02  -6.2919050076687577e-02  -9.3692836286752817e-02  -1.2475072373860663e-01  -1.5760447220718377e-01  -1.9226141506873004e-01  -2.2544170373459602e-01  -2.6394761113386422e-01  -3.0847913737053884e-01  -3.4002137732004462e-01  -3.8867152234776592e-01  -4.5968557400401200e-01  -4.4214706740671261e-01  -6.8654962173500222e-01  -2.3567795890099499e-01  -3.0028629650632754e-02  1.3128370569420056e-01  3.5123855380739438e-01  4.3805479462487962e-01  4.2868759662622552e-01  3.8828562338569872e-01  3.4736532797841385e-01  3.1480758862479774e-01  2.8305902684541057e-01  2.4736985930279609e-01  2.1280265041914542e-01  1.8080214654916890e-01  1.4934348465837141e-01  1.1818028106263660e-01  8.7817397856077839e-02  5.8210703803623753e-02  2.9112149433119405e-02  2.6117959879972573e-04  -2.8564272388677016e-02  -5.7490011522548422e-02  -8.6830369386776768e-02  -1.1700033897762693e-01  -1.4883588863325722e-01  -1.8132283513795086e-01  -2.1313044225506236e-01  -2.5245545287473536e-01  -2.9478235384020174e-01  -3.2312040857794422e-01  -3.7540982584380106e-01  -4.4473326884306541e-01  -4.2483023520379548e-01  -6.7502655923639165e-01  -2.5627098545509869e-01  -2.3621684325850205e-02  6.3429213234597645e-02  2.7754599494474785e-01  4.0694454433339688e-01  4.2429845296776431e-01  3.9072901402556826e-01  3.4860824804157442e-01  3.1178737819936148e-01  2.7988720893575125e-01  2.4657074435559850e-01  2.1148262175442686e-01  1.7820020149057764e-01  1.4708231626213356e-01  1.1692090182044416e-01  8.7444833807182668e-02  5.8761728378503540e-02  3.0746749659655855e-02  3.1835774844667002e-03  -2.4157181602953232e-02  -5.1639031391484611e-02  -7.9654915534349904e-02  -1.0859064120834533e-01  -1.3808941367840696e-01  -1.6791529398907243e-01  -1.9992098892527338e-01  -2.3907015494976133e-01  -2.7684806539303414e-01  -3.0258666920225380e-01  -3.5956603391479280e-01  -4.2689721066203179e-01  -3.9965660306217637e-01  -6.6135674950458856e-01  -2.7172786903769491e-01  -1.3885739799817685e-02  1.3134537952124032e-02  1.8862628343945415e-01  3.5278377622257645e-01  4.1052668968272843e-01  3.9177802709924670e-01  3.5119881758019927e-01  3.1090069380515645e-01  2.7550793476336183e-01  2.4280259097167703e-01  2.0933491696361375e-01  1.7570871715814002e-01  1.4394627079097957e-01  1.1422835577879177e-01  8.5874052447072427e-02  5.8485529309109191e-02  3.1900557390036027e-02  5.8652259582908043e-03  -1.9963043404317975e-02  -4.5735837584724777e-02  -7.1874241850374304e-02  -9.8322760872377249