<?xml version="1.0"?>
<VTKFile type="UnstructuredGrid"  version="0.1"  >
<UnstructuredGrid>
<Piece  NumberOfPoints="16641" NumberOfCells="16384">
<Points>
<DataArray  type="Float64"  NumberOfComponents="3"  format="ascii">0 0 0  0.0078125 0 0  0.015625 0 0  0.0234375 0 0  0.03125 0 0  0.0390625 0 0  0.046875 0 0  0.0546875 0 0  0.0625 0 0  0.0703125 0 0  0.078125 0 0  0.0859375 0 0  0.09375 0 0  0.1015625 0 0  0.109375 0 0  0.1171875 0 0  0.125 0 0  0.1328125 0 0  0.140625 0 0  0.1484375 0 0  0.15625 0 0  0.1640625 0 0  0.171875 0 0  0.1796875 0 0  0.1875 0 0  0.1953125 0 0  0.203125 0 0  0.2109375 0 0  0.21875 0 0  0.2265625 0 0  0.234375 0 0  0.2421875 0 0  0.25 0 0  0.2578125 0 0  0.265625 0 0  0.2734375 0 0  0.28125 0 0  0.2890625 0 0  0.296875 0 0  0.3046875 0 0  0.3125 0 0  0.3203125 0 0  0.328125 0 0  0.3359375 0 0  0.34375 0 0  0.3515625 0 0  0.359375 0 0  0.3671875 0 0  0.375 0 0  0.3828125 0 0  0.390625 0 0  0.3984375 0 0  0.40625 0 0  0.4140625 0 0  0.421875 0 0  0.4296875 0 0  0.4375 0 0  0.4453125 0 0  0.453125 0 0  0.4609375 0 0  0.46875 0 0  0.4765625 0 0  0.484375 0 0  0.4921875 0 0  0.5 0 0  0.5078125 0 0  0.515625 0 0  0.5234375 0 0  0.53125 0 0  0.5390625 0 0  0.546875 0 0  0.5546875 0 0  0.5625 0 0  0.5703125 0 0  0.578125 0 0  0.5859375 0 0  0.59375 0 0  0.6015625 0 0  0.609375 0 0  0.6171875 0 0  0.625 0 0  0.6328125 0 0  0.640625 0 0  0.6484375 0 0  0.65625 0 0  0.6640625 0 0  0.671875 0 0  0.6796875 0 0  0.6875 0 0  0.6953125 0 0  0.703125 0 0  0.7109375 0 0  0.71875 0 0  0.7265625 0 0  0.734375 0 0  0.7421875 0 0  0.75 0 0  0.7578125 0 0  0.765625 0 0  0.7734375 0 0  0.78125 0 0  0.7890625 0 0  0.796875 0 0  0.8046875 0 0  0.8125 0 0  0.8203125 0 0  0.828125 0 0  0.8359375 0 0  0.84375 0 0  0.8515625 0 0  0.859375 0 0  0.8671875 0 0  0.875 0 0  0.8828125 0 0  0.890625 0 0  0.8984375 0 0  0.90625 0 0  0.9140625 0 0  0.921875 0 0  0.9296875 0 0  0.9375 0 0  0.9453125 0 0  0.953125 0 0  0.9609375 0 0  0.96875 0 0  0.9765625 0 0  0.984375 0 0  0.9921875 0 0  1 0 0  0 0.0078125 0  0.0078125 0.0078125 0  0.015625 0.0078125 0  0.0234375 0.0078125 0  0.03125 0.0078125 0  0.0390625 0.0078125 0  0.046875 0.0078125 0  0.0546875 0.0078125 0  0.0625 0.0078125 0  0.0703125 0.0078125 0  0.078125 0.0078125 0  0.0859375 0.0078125 0  0.09375 0.0078125 0  0.1015625 0.0078125 0  0.109375 0.0078125 0  0.1171875 0.0078125 0  0.125 0.0078125 0  0.1328125 0.0078125 0  0.140625 0.0078125 0  0.1484375 0.0078125 0  0.15625 0.0078125 0  0.1640625 0.0078125 0  0.171875 0.0078125 0  0.1796875 0.0078125 0  0.1875 0.0078125 0  0.1953125 0.0078125 0  0.203125 0.0078125 0  0.2109375 0.0078125 0  0.21875 0.0078125 0  0.2265625 0.0078125 0  0.234375 0.0078125 0  0.2421875 0.0078125 0  0.25 0.0078125 0  0.2578125 0.0078125 0  0.265625 0.0078125 0  0.2734375 0.0078125 0  0.28125 0.0078125 0  0.2890625 0.0078125 0  0.296875 0.0078125 0  0.3046875 0.0078125 0  0.3125 0.0078125 0  0.3203125 0.0078125 0  0.328125 0.0078125 0  0.3359375 0.0078125 0  0.34375 0.0078125 0  0.3515625 0.0078125 0  0.359375 0.0078125 0  0.3671875 0.0078125 0  0.375 0.0078125 0  0.3828125 0.0078125 0  0.390625 0.0078125 0  0.3984375 0.0078125 0  0.40625 0.0078125 0  0.4140625 0.0078125 0  0.421875 0.0078125 0  0.4296875 0.0078125 0  0.4375 0.0078125 0  0.4453125 0.0078125 0  0.453125 0.0078125 0  0.4609375 0.0078125 0  0.46875 0.0078125 0  0.4765625 0.0078125 0  0.484375 0.0078125 0  0.4921875 0.0078125 0  0.5 0.0078125 0  0.5078125 0.0078125 0  0.515625 0.0078125 0  0.5234375 0.0078125 0  0.53125 0.0078125 0  0.5390625 0.0078125 0  0.546875 0.0078125 0  0.5546875 0.0078125 0  0.5625 0.0078125 0  0.5703125 0.0078125 0  0.578125 0.0078125 0  0.5859375 0.0078125 0  0.59375 0.0078125 0  0.6015625 0.0078125 0  0.609375 0.0078125 0  0.6171875 0.0078125 0  0.625 0.0078125 0  0.6328125 0.0078125 0  0.640625 0.0078125 0  0.6484375 0.0078125 0  0.65625 0.0078125 0  0.6640625 0.0078125 0  0.671875 0.0078125 0  0.6796875 0.0078125 0  0.6875 0.0078125 0  0.6953125 0.0078125 0  0.703125 0.0078125 0  0.7109375 0.0078125 0  0.71875 0.0078125 0  0.7265625 0.0078125 0  0.734375 0.0078125 0  0.7421875 0.0078125 0  0.75 0.0078125 0  0.7578125 0.0078125 0  0.765625 0.0078125 0  0.7734375 0.0078125 0  0.78125 0.0078125 0  0.7890625 0.0078125 0  0.796875 0.0078125 0  0.8046875 0.0078125 0  0.8125 0.0078125 0  0.8203125 0.0078125 0  0.828125 0.0078125 0  0.8359375 0.0078125 0  0.84375 0.0078125 0  0.8515625 0.0078125 0  0.859375 0.0078125 0  0.8671875 0.0078125 0  0.875 0.0078125 0  0.8828125 0.0078125 0  0.890625 0.0078125 0  0.8984375 0.0078125 0  0.90625 0.0078125 0  0.9140625 0.0078125 0  0.921875 0.0078125 0  0.9296875 0.0078125 0  0.9375 0.0078125 0  0.9453125 0.0078125 0  0.953125 0.0078125 0  0.9609375 0.0078125 0  0.96875 0.0078125 0  0.9765625 0.0078125 0  0.984375 0.0078125 0  0.9921875 0.0078125 0  1 0.0078125 0  0 0.015625 0  0.0078125 0.015625 0  0.015625 0.015625 0  0.0234375 0.015625 0  0.03125 0.015625 0  0.0390625 0.015625 0  0.046875 0.015625 0  0.0546875 0.015625 0  0.0625 0.015625 0  0.0703125 0.015625 0  0.078125 0.015625 0  0.0859375 0.015625 0  0.09375 0.015625 0  0.1015625 0.015625 0  0.109375 0.015625 0  0.1171875 0.015625 0  0.125 0.015625 0  0.1328125 0.015625 0  0.140625 0.015625 0  0.1484375 0.015625 0  0.15625 0.015625 0  0.1640625 0.015625 0  0.171875 0.015625 0  0.1796875 0.015625 0  0.1875 0.015625 0  0.1953125 0.015625 0  0.203125 0.015625 0  0.2109375 0.015625 0  0.21875 0.015625 0  0.2265625 0.015625 0  0.234375 0.015625 0  0.2421875 0.015625 0  0.25 0.015625 0  0.2578125 0.015625 0  0.265625 0.015625 0  0.2734375 0.015625 0  0.28125 0.015625 0  0.2890625 0.015625 0  0.296875 0.015625 0  0.3046875 0.015625 0  0.3125 0.015625 0  0.3203125 0.015625 0  0.328125 0.015625 0  0.3359375 0.015625 0  0.34375 0.015625 0  0.3515625 0.015625 0  0.359375 0.015625 0  0.3671875 0.015625 0  0.375 0.015625 0  0.3828125 0.015625 0  0.390625 0.015625 0  0.3984375 0.015625 0  0.40625 0.015625 0  0.4140625 0.015625 0  0.421875 0.015625 0  0.4296875 0.015625 0  0.4375 0.015625 0  0.4453125 0.015625 0  0.453125 0.015625 0  0.4609375 0.015625 0  0.46875 0.015625 0  0.4765625 0.015625 0  0.484375 0.015625 0  0.4921875 0.015625 0  0.5 0.015625 0  0.5078125 0.015625 0  0.515625 0.015625 0  0.5234375 0.015625 0  0.53125 0.015625 0  0.5390625 0.015625 0  0.546875 0.015625 0  0.5546875 0.015625 0  0.5625 0.015625 0  0.5703125 0.015625 0  0.578125 0.015625 0  0.5859375 0.015625 0  0.59375 0.015625 0  0.6015625 0.015625 0  0.609375 0.015625 0  0.6171875 0.015625 0  0.625 0.015625 0  0.6328125 0.015625 0  0.640625 0.015625 0  0.6484375 0.015625 0  0.65625 0.015625 0  0.6640625 0.015625 0  0.671875 0.015625 0  0.6796875 0.015625 0  0.6875 0.015625 0  0.6953125 0.015625 0  0.703125 0.015625 0  0.7109375 0.015625 0  0.71875 0.015625 0  0.7265625 0.015625 0  0.734375 0.015625 0  0.7421875 0.015625 0  0.75 0.015625 0  0.7578125 0.015625 0  0.765625 0.015625 0  0.7734375 0.015625 0  0.78125 0.015625 0  0.7890625 0.015625 0  0.796875 0.015625 0  0.8046875 0.015625 0  0.8125 0.015625 0  0.8203125 0.015625 0  0.828125 0.015625 0  0.8359375 0.015625 0  0.84375 0.015625 0  0.8515625 0.015625 0  0.859375 0.015625 0  0.8671875 0.015625 0  0.875 0.015625 0  0.8828125 0.015625 0  0.890625 0.015625 0  0.8984375 0.015625 0  0.90625 0.015625 0  0.9140625 0.015625 0  0.921875 0.015625 0  0.9296875 0.015625 0  0.9375 0.015625 0  0.9453125 0.015625 0  0.953125 0.015625 0  0.9609375 0.015625 0  0.96875 0.015625 0  0.9765625 0.015625 0  0.984375 0.015625 0  0.9921875 0.015625 0  1 0.015625 0  0 0.0234375 0  0.0078125 0.0234375 0  0.015625 0.0234375 0  0.0234375 0.0234375 0  0.03125 0.0234375 0  0.0390625 0.0234375 0  0.046875 0.0234375 0  0.0546875 0.0234375 0  0.0625 0.0234375 0  0.0703125 0.0234375 0  0.078125 0.0234375 0  0.0859375 0.0234375 0  0.09375 0.0234375 0  0.1015625 0.0234375 0  0.109375 0.0234375 0  0.1171875 0.0234375 0  0.125 0.0234375 0  0.1328125 0.0234375 0  0.140625 0.0234375 0  0.1484375 0.0234375 0  0.15625 0.0234375 0  0.1640625 0.0234375 0  0.171875 0.0234375 0  0.1796875 0.0234375 0  0.1875 0.0234375 0  0.1953125 0.0234375 0  0.203125 0.0234375 0  0.2109375 0.0234375 0  0.21875 0.0234375 0  0.2265625 0.0234375 0  0.234375 0.0234375 0  0.2421875 0.0234375 0  0.25 0.0234375 0  0.2578125 0.0234375 0  0.265625 0.0234375 0  0.2734375 0.0234375 0  0.28125 0.0234375 0  0.2890625 0.0234375 0  0.296875 0.0234375 0  0.3046875 0.0234375 0  0.3125 0.0234375 0  0.3203125 0.0234375 0  0.328125 0.0234375 0  0.3359375 0.0234375 0  0.34375 0.0234375 0  0.3515625 0.0234375 0  0.359375 0.0234375 0  0.3671875 0.0234375 0  0.375 0.0234375 0  0.3828125 0.0234375 0  0.390625 0.0234375 0  0.3984375 0.0234375 0  0.40625 0.0234375 0  0.4140625 0.0234375 0  0.421875 0.0234375 0  0.4296875 0.0234375 0  0.4375 0.0234375 0  0.4453125 0.0234375 0  0.453125 0.0234375 0  0.4609375 0.0234375 0  0.46875 0.0234375 0  0.4765625 0.0234375 0  0.484375 0.0234375 0  0.4921875 0.0234375 0  0.5 0.0234375 0  0.5078125 0.0234375 0  0.515625 0.0234375 0  0.5234375 0.0234375 0  0.53125 0.0234375 0  0.5390625 0.0234375 0  0.546875 0.0234375 0  0.5546875 0.0234375 0  0.5625 0.0234375 0  0.5703125 0.0234375 0  0.578125 0.0234375 0  0.5859375 0.0234375 0  0.59375 0.0234375 0  0.6015625 0.0234375 0  0.609375 0.0234375 0  0.6171875 0.0234375 0  0.625 0.0234375 0  0.6328125 0.0234375 0  0.640625 0.0234375 0  0.6484375 0.0234375 0  0.65625 0.0234375 0  0.6640625 0.0234375 0  0.671875 0.0234375 0  0.6796875 0.0234375 0  0.6875 0.0234375 0  0.6953125 0.0234375 0  0.703125 0.0234375 0  0.7109375 0.0234375 0  0.71875 0.0234375 0  0.7265625 0.0234375 0  0.734375 0.0234375 0  0.7421875 0.0234375 0  0.75 0.0234375 0  0.7578125 0.0234375 0  0.765625 0.0234375 0  0.7734375 0.0234375 0  0.78125 0.0234375 0  0.7890625 0.0234375 0  0.796875 0.0234375 0  0.8046875 0.0234375 0  0.8125 0.0234375 0  0.8203125 0.0234375 0  0.828125 0.0234375 0  0.8359375 0.0234375 0  0.84375 0.0234375 0  0.8515625 0.0234375 0  0.859375 0.0234375 0  0.8671
[...]
<PointData  Scalars="u_sol"> 
<DataArray  type="Float64"  Name="u_sol"  format="ascii">1.9760891824383954e-06  -1.1990558020903880e-05  -2.2129067481091615e-05  -2.0910716226653399e-05  -1.2760310093780577e-05  1.1756655113590633e-07  1.5609243797191937e-05  3.2108923268626907e-05  4.8221483309771752e-05  6.2874160505787665e-05  7.5325493375211780e-05  8.5203586660036757e-05  9.2484605949761807e-05  9.7447795649502355e-05  1.0060217921169262e-04  1.0260644657075124e-04  1.0418980900724503e-04  1.0608305705627081e-04  1.0896212764298942e-04  1.1340499920365375e-04  1.1986153159448460e-04  1.2863678396619267e-04  1.3988931203703917e-04  1.5364615268932712e-04  1.6983379566342310e-04  1.8832136421177034e-04  2.0896848819750935e-04  2.3166720578889961e-04  2.5636831169103153e-04  2.8308706058122418e-04  3.1188880290925760e-04  3.4285862839588175e-04  3.7606292912621637e-04  4.1151369020395249e-04  4.4914097741603938e-04  4.8877486851259255e-04  5.3013094435639047e-04  5.7279478817081340e-04  6.1621495734972057e-04  6.5968313546048104e-04  7.0234949481635294e-04  7.4320738945774217e-04  7.8110205096580503e-04  8.1476502479185841e-04  8.4277293150410485e-04  8.6360609730551233e-04  8.7569769718421925e-04  8.7746797034042123e-04  8.6735344328956550e-04  8.4384712141147321e-04  8.0566098902740981e-04  7.5174088816700726e-04  6.8128021637027416e-04  5.9381476847630941e-04  4.8926049533992092e-04  3.6796076733352313e-04  2.3071535915804823e-04  7.8803273759967560e-05  -8.6007915521364291e-05  -2.6146158296091126e-04  -4.4482657547595622e-04  -6.3291577571876131e-04  -8.2213257698189406e-04  -1.0084971987183273e-03  -1.1877402559727446e-03  -1.3553947748081632e-03  -1.5065955700761090e-03  -1.6369373126675921e-03  -1.7420907245898148e-03  -1.8174964603944980e-03  -1.8592253414807919e-03  -1.8638837840444823e-03  -1.8288585777775964e-03  -1.7524899235278112e-03  -1.6342552821875357e-03  -1.4749241122697272e-03  -1.2766703300854472e-03  -1.0431289038977697e-03  -7.7937968558486228e-04  -4.9184834788371210e-04  -1.8810822263199352e-04  1.2336976653144107e-04  4.3345795034913039e-04  7.3315182556193427e-04  1.0137848002698547e-03  1.2671333558066840e-03  1.4863091925379742e-03  1.6660282305138892e-03  1.8026744877759474e-03  1.8944669860567595e-03  1.9415949588220101e-03  1.9459970169858815e-03  1.9111004277515627e-03  1.8416683341667612e-03  1.7433248518998513e-03  1.6223558373782085e-03  1.4850525777902871e-03  1.3374286711025148e-03  1.1853721171468255e-03  1.0339914037035644e-03  8.8753972383381560e-04  7.4946023628488258e-04  6.2222010330849125e-04  5.0744668375343044e-04  4.0597609070129224e-04  3.1795768334252076e-04  2.4300693746229696e-04  1.8032753139779671e-04  1.2885183683698469e-04  8.7349541232762607e-05  5.4525727924753735e-05  2.9100881508551642e-05  9.8648538243183264e-06  -4.2882085856972504e-06  -1.4351088050104682e-05  -2.1196569068290667e-05  -2.5583980457167964e-05  -2.8175266320823298e-05  -2.9545854873811737e-05  -3.0182807109502730e-05  -3.0477051650151695e-05  -3.0670978352239184e-05  -3.0821041056998894e-05  -3.0650330907723111e-05  -2.9540777539833441e-05  -2.6194971292522171e-05  -1.9210818515705783e-05  -6.8817278811768854e-06  1.5895534263750372e-06  -1.0035865772743062e-06  -3.8041429503998230e-07  9.5578779006680423e-05  3.3114098214425943e-04  6.9294147091566777e-04  1.1538064941792314e-03  1.6799594494993676e-03  2.2370272976734709e-03  2.7927986478997577e-03  3.3195717670236437e-03  3.7957617211084723e-03  4.2068331464729068e-03  4.5454969012323244e-03  4.8112294172426339e-03  5.0092426968476010e-03  5.1490731968166217e-03  5.2429683913539742e-03  5.3042323724469161e-03  5.3456661264051951e-03  5.3782112545069207e-03  5.4098844926545268e-03  5.4450716197796938e-03  5.4842252922806447e-03  5.5239741620516317e-03  5.5575998739566743e-03  5.5757797863094935e-03  5.5674452135709377e-03  5.5205874880753540e-03  5.4228661582396932e-03  5.2619340497022590e-03  5.0254765788611492e-03  4.7010419723880021e-03  4.2757835429635552e-03  3.7362340047042883e-03  3.0682032128693274e-03  2.2568389719297430e-03  1.2868529408190464e-03  1.4288315650658924e-04  -1.1900593909354887e-03  -2.7260675799142989e-03  -4.4778235735953662e-03  -6.4560092543488393e-03  -8.6687241046271308e-03  -1.1120930750069556e-02  -1.3813830643962195e-02  -1.6744413584997564e-02  -1.9905077262466091e-02  -2.3283321712520105e-02  -2.6861573045011179e-02  -3.0617153590767617e-02  -3.4522481328122072e-02  -3.8545283571861821e-02  -4.2648943353066487e-02  -4.6793013398017065e-02  -5.0933767892706823e-02  -5.5024825393186580e-02  -5.9017795968292132e-02  -6.2862943377457195e-02  -6.6509841148924179e-02  -6.9908016399042081e-02  -7.3007573255162050e-02  -7.5759806085342413e-02  -7.8117791152425467e-02  -8.0037008848882832e-02  -8.1475921674113161e-02  -8.2396630514429997e-02  -8.2765853912523973e-02  -8.2554763986916205e-02  -8.1740226219438925e-02  -8.0306185802399718e-02  -7.8243818469631285e-02  -7.5552592051568154e-02  -7.2240983862812802e-02  -6.8327195773795299e-02  -6.3839721617451467e-02  -5.8817728667266631e-02  -5.3311197463262801e-02  -4.7380757216130269e-02  -4.1097170567627413e-02  -3.4540428253217896e-02  -2.7798440900458372e-02  -2.0965306340912537e-02  -1.4139119093522400e-02  -7.4199200658818139e-03  -9.0672154027155946e-04  5.3056382726534689e-03  1.1128556687893204e-02  1.6482344000853258e-02  2.1298886535832999e-02  2.5523540784485096e-02  2.9116344783487732e-02  3.2053053554532973e-02  3.4325584189269842e-02  3.5941422676558400e-02  3.6922788840247578e-02  3.7305146864486168e-02  3.7135720590628182e-02  3.6471206722170170e-02  3.5374975594542730e-02  3.3915164580567689e-02  3.2162076400083131e-02  3.0185594791886153e-02  2.8053164992356883e-02  2.5827743519063043e-02  2.3566251674832794e-02  2.1318432811055055e-02  1.9126101430159810e-02  1.7022879866063025e-02  1.5034308876032397e-02  1.3178323890471294e-02  1.1465985084387035e-02  9.9023761989396712e-03  8.4875905784162122e-03  7.2177227766471730e-03  6.0858188199413603e-03  5.0827195622064119e-03  4.1978208200329379e-03  3.4197879937950750e-03  2.7372620248861403e-03  2.1396236833233443e-03  1.6178618138368598e-03  1.1655177702622364e-03  7.7963472500204209e-04  4.6143783794919482e-04  2.1629867033049055e-04  5.2257105661334999e-05  -2.5595267398906692e-05  -2.4180210265509752e-05  3.9680139033337294e-06  -1.2506694112768453e-05  6.2269724254007498e-05  3.1990579299956168e-04  7.8176785743942659e-04  1.4312238857910338e-03  2.2299229826212748e-03  3.1282019127220804e-03  4.0732720992716614e-03  5.0146470897733664e-03  5.9081510460985906e-03  6.7186617171347378e-03  7.4216892633217060e-03  8.0038131973581665e-03  8.4620851842283594e-03  8.8025708690483845e-03  9.0382602504859699e-03  9.1865951098537880e-03  9.2668579775471212e-03  9.2976458945224494e-03  9.2946248259391673e-03  9.2687313816732196e-03  9.2249524224247634e-03  9.1617636804538702e-03  9.0712393537412655e-03  8.9397552778150789e-03  8.7491185203487955e-03  8.4778879820193772e-03  8.1026283949900049e-03  7.5988839257849737e-03  6.9417579075645624e-03  6.1061093000578668e-03  5.0664813815796865e-03  3.7969422287148476e-03  2.2710246578749298e-03  4.6189694363815692e-04  -1.6571804324813579e-03  -4.1121506468941652e-03  -6.9272735920000456e-03  -1.0124081938559791e-02  -1.3720265839731521e-02  -1.7728461445733697e-02  -2.2155150657438047e-02  -2.6999646314329433e-02  -3.2253199124279763e-02  -3.7898432420006352e-02  -4.3908910344297232e-02  -5.0249031955291727e-02  -5.6874295101545506e-02  -6.3731863110808071e-02  -7.0761421332132118e-02  -7.7896236331776933e-02  -8.5064471924048521e-02  -9.2190601039353795e-02  -9.9196827716329053e-02  -1.0600450974563441e-01  -1.1253548724372930e-01  -1.1871329219509844e-01  -1.2446420501344671e-01  -1.2971815204658024e-01  -1.3440944604004598e-01  -1.3847738707436111e-01  -1.4186674336993549e-01  -1.4452815114208536e-01  -1.4641842857679346e-01  -1.4750092223115152e-01  -1.4774574324249160e-01  -1.4712964460857941e-01  -1.4563743540790011e-01  -1.4326203807826041e-01  -1.4000407441536308e-01  -1.3587290713105810e-01  -1.3088686224280069e-01  -1.2507369742935229e-01  -1.1847096532490467e-01  -1.1112630484447554e-01  -1.0309762452626417e-01  -9.4453118134684474e-02  -8.5271078507880210e-02  -7.5639460477983395e-02  -6.5655157771763034e-02  -5.5422963656480681e-02  -4.5054204273875409e-02  -3.4665113181216865e-02  -2.4374514480858187e-02  -1.4301996301315529e-02  -4.5658446202471179e-03  4.7204204409440273e-03  1.3450481739999328e-02  2.1527225000928501e-02  2.8865139214639169e-02  3.5392937935091677e-02  4.1055034263158541e-02  4.5812251952904066e-02  4.9643236143543289e-02  5.2545103154035051e-02  5.4533368782296969e-02  5.5640909776385236e-02  5.5917146926144724e-02  5.5426842016645425e-02  5.4247159127788019e-02  5.2465296342665571e-02  5.0175817031078103e-02  4.7477077611649536e-02  4.4468026773801024e-02  4.1244907904822992e-02  3.7898186432376441e-02  3.4510038144408027e-02  3.1152355040933409e-02  2.7885491572192323e-02  2.4757698843136975e-02  2.1805238905059136e-02  1.9053069526384993e-02  1.6515956752486200e-02  1.4199856792578862e-02  1.2103400939579302e-02  1.0219447337382273e-02  8.5365995174235126e-03  7.0406597299733208e-03  5.7160936854587108e-03  4.5475329289248129e-03  3.5213358210060466e-03  2.6271599928964409e-03  1.8593353912745240e-03  1.2177049748274018e-03  7.0716521799079929e-04  3.3527117101785005e-04  1.0542547701159633e-04  8.4669787455302264e-06  -2.1454829610112244e-06  -2.3760789720379473e-05  1.1969690144776565e-04  5.3546302407363742e-04  1.2060417324859596e-03  2.0996816647716530e-03  3.1667278151513959e-03  4.3467346083784931e-03  5.5755155554500562e-03  6.7914766664506796e-03  7.9404150718272223e-03  8.9788821509788914e-03  9.8760731592396848e-03  1.0614346752035386e-02  1.1188511177043217e-02  1.1604093692300001e-02  1.1874845804782075e-02  1.2019761211703979e-02  1.2059884608148283e-02  1.2015180380170187e-02  1.1901714152640651e-02  1.1729373239188684e-02  1.1500310187766554e-02  1.1208225951339849e-02  1.0838509193745814e-02  1.0369129547760231e-02  9.7720616577504481e-03  9.0149350392545440e-03  8.0625983620375655e-03  6.8783563536494955e-03  5.4247705302996703e-03  3.6640709780867771e-03  1.5583684518245247e-03  -9.3009515420542526e-04  -3.8384757424842881e-03  -7.2025449163032182e-03  -1.1055561765332574e-02  -1.5426800263312787e-02  -2.0339839111076737e-02  -2.5810826428644167e-02  -3.1846801362479207e-02  -3.8444239319094707e-02  -4.5587789778081721e-02  -5.3249397493430425e-02  -6.1387959961874024e-02  -6.9949442339941922e-02  -7.8867661262003494e-02  -8.8065588427168606e-02  -9.7457099560646285e-02  -1.0694910394206661e-01  -1.1644389272870588e-01  -1.2584158580936092e-01  -1.3504247450438003e-01  -1.4394917599404936e-01  -1.5246850282154301e-01  -1.6051296234057116e-01  -1.6800188125517615e-01  -1.7486215156550503e-01  -1.8102863675531508e-01  -1.8644428609497909e-01  -1.9106001953243701e-01  -1.9483444645190051e-01  -1.9773348290447537e-01  -1.9972991439030355e-01  -2.0080298553043419e-01  -2.0093796497333913e-01  -2.0012583604478387e-01  -1.9836374294118242e-01  -1.9565388347565160e-01  -1.9200344635561586e-01  -1.8742559960580127e-01  -1.8193925785461090e-01  -1.7556960839279284e-01  -1.6834853424435792e-01  -1.6031511450916780e-01  -1.5151614330382587e-01  -1.4200659451782632e-01  -1.3185000157126181e-01  -1.2111868146202144e-01  -1.0989375144473795e-01  -9.8264883095425762e-02  -8.6329752115497940e-02  -7.4193156734271321e-02  -6.1965747241930456e-02  -4.9762703943801542e-02  -3.7701589360858531e-02  -2.5900063139757203e-02  -1.4474432335271814e-02  -3.5371639750503068e-03  6.8057222122025482e-03  1.6456674878661707e-02  2.5327528220590891e-02  3.3341536273723466e-02  4.0436097971786295e-02  4.6563323924021599e-02  5.1690432711064854e-02  5.5800512238805458e-02  5.8893823757663687e-02  6.0987979561202554e-02  6.2117607163227048e-02  6.2334764201138620e-02  6.1707571022694224e-02  6.0318202334680618e-02  5.8261161563873530e-02  5.5640082796476538e-02  5.2564131005631752e-02  4.9144211468762744e-02  4.5488863814564538e-02  4.1700525325803123e-02  3.7872245761216193e-02  3.4085189789150566e-02  3.0407029312095119e-02  2.6891265097118127e-02  2.3577397936937607e-02  2.0491810383831785e-02  1.7649221920333538e-02  1.5054419557258664e-02  1.2704174800487730e-02  1.0589308668923939e-02  8.6967799158478680e-03  7.0118255047578763e-03  5.5201217991111187e-03  4.2098664436595679e-03  3.0735657885750732e-03  2.1091518622158903e-03  1.3198608490070274e-03  7.1233981582082039e-04  2.9206591403464603e-04  5.7494994590904307e-05  -1.1649225283850499e-05  -3.2995501099842222e-05  1.6626856943310263e-04  7.1816912344862757e-04  1.5704959194285811e-03  2.6707545573909008e-03  3.9549185671354393e-03  5.3515995115881081e-03  6.7873662941948841e-03  8.1927944297596617e-03  9.5073319329734510e-03  1.0682720383226197e-02  1.1684806076126542e-02  1.2493843338875437e-02  1.3103478144390640e-02  1.3518666887526572e-02  1.3752809443473632e-02  1.3824383637973567e-02  1.3753366798768594e-02  1.3557730770599635e-02  1.3250291875224569e-02  1.2836183067027152e-02  1.2311174443747366e-02  1.1660983954797647e-02  1.0861593739824692e-02  9.8804290328095914e-03  8.6781171645620870e-03  7.2104637391928990e-03  5.4302896158986208e-03  3.2888952683795018e-03  7.3711801902490300e-04  -2.2738648739562581e-03  -5.7917836773780573e-03  -9.8623384881704294e-03  -1.4527843171666117e-02  -1.9825367977246107e-02  -2.5784554896642244e-02  -3.2425339208038140e-02  -3.9755720862231718e-02  -4.7769682254413699e-02  -5.6445519272604661e-02  -6.5744760226269280e-02  -7.5611889101990806e-02  -8.5974926374818073e-02  -9.6746838065805890e-02  -1.0782782115094451e-01  -1.1910822049730058e-01  -1.3047193029758075e-01  -1.4180001380819951e-01  -1.5297426011553689e-01  -1.6388045092317291e-01  -1.7441112061525416e-01  -1.8446770085849959e-01  -1.9396198001112663e-01  -2.0281688713193410e-01  -2.1096666839573630e-01  -2.1835654856812617e-01  -2.2494200223476965e-01  -2.3068775517828699e-01  -2.3556663497224142e-01  -2.3955837196612817e-01  -2.4264843459403496e-01  -2.4482696140930724e-01  -2.4608784516703572e-01  -2.4642797055101087e-01  -2.4584669580618343e-01  -2.4434566445045802e-01  -2.4192791759405005e-01  -2.3859848349857779e-01  -2.3436504446817105e-01  -2.2923774453633675e-01  -2.2323005237455754e-01  -2.1635940271873000e-01  -2.0864802990761810e-01  -2.0012387252615124e-01  -1.9082149258584194e-01  -1.8078298100029036e-01  -1.7005877015912915e-01  -1.5870829350018206e-01  -1.4680041491944262e-01  -1.3441355878031622e-01  -1.2163547622728361e-01  -1.0856259934773237e-01  -9.5299002786831427e-02  -8.1954800181126844e-02  -6.8644436202274173e-02  -5.5484655412990046e-02  -4.2591813244328799e-02  -3.0079770259179770e-02  -1.8057874077799765e-02  -6.6290103241180174e-03  4.1131696939502973e-03  1.4085131996458980e-02  2.3212971591258076e-02  3.1433643058942522e-02  3.8696316935953136e-02  4.4963290871948239e-02  5.0209664680574216e-02  5.4423740357481647e-02  5.7608165135517475e-02  5.9780446876813151e-02  6.0974377381230127e-02  6.1240780294925301e-02  6.0646385646728404e-02  5.9273258044823654e-02  5.7217017704805848e-02  5.4583598805763266e-02  5.1485617125455775e-02  4.8037911097963251e-02  4.4353008270703147e-02  4.0536819371104559e-02  3.6684986347175784e-02  3.2880163324655674e-02  2.9190388450792183e-02  2.5668548353635575e-02  2.2352754276057048e-02  1.9267572849949403e-02  1.6425828734270981e-02  1.3830727652593420e-02  1.1478283960774754e-02  9.3598878074860406e-03  7.4649311881240018e-03  5.7833749600114132e-03  4.3080465814406303e-03  3.0363773899143190e-03  1.9712446317648458e-03  1.1206064088681283e-03  4.9607833070441530e-04  1.1047862133780522e-04  -2.2033350555171172e-05  -4.0287206875869539e-05  2.0263747144053988e-04  8.6704866320128202e-04  1.8735412335612025e-03  3.1476421815335308e-03  4.6083669585435475e-03  6.1715917940264528e-03  7.7543469530428691e-03  9.2803650953157887e-03  1.0684610570176624e-02  1.1916334193316174e-02  1.2940400222811196e-02  1.3737015923541394e-02  1.4300117128130521e-02  1.4634727896775356e-02  1.4753609885663481e-02  1.4673498504381779e-02  1.4411210752665811e-02  1.3979909762791258e-02  1.3385821489655163e-02  1.2625698350974596e-02  1.1685281677749321e-02  1.0538911161964771e-02  9.1502666226477986e-03  7.4740414988212125e-03  5.4581781759752961e-03  3.0462284025133011e-03  1.7950204015119650e-04  -3.2011451954084605e-03  -7.1538580699838832e-03  -1.1734433031195660e-02  -1.6994656398236167e-02  -2.2980125066278313e-02  -2.9727660095462557e-02  -3.7262472521869282e-02  -4.5595205549298745e-02  -5.4719162458953995e-02  -6.4608114445138143e-02  -7.5215008505832182e-02  -8.6471731904269419e-02  -9.8290080082759926e-02  -1.1056396516921421e-01  -1.2317276894456924e-01  -1.3598563817453416e-01  -1.4886632307848593e-01  -1.6167818990463692e-01  -1.7428896588068349e-01  -1.8657485881125316e-01  -1.9842378126173829e-01  -2.0973752347597882e-01  -2.2043286088802680e-01  -2.3044167199202872e-01  -2.3971022887489463e-01  -2.4819786444006767e-01  -2.5587523249603922e-01  -2.6272236470814603e-01  -2.6872669486749173e-01  -2.7388118511408599e-01  -2.7818264506160068e-01  -2.8163030042638793e-01  -2.8422463616415244e-01  -2.8596651869875384e-01  -2.8685657717687724e-01  -2.8689484567583023e-01  -2.8608062494875353e-01  -2.8441225248820029e-01  -2.8188783614070057e-01  -2.7850562057953260e-01  -2.7426412849514492e-01  -2.6916313102372003e-01  -2.6320435081811361e-01  -2.5639241210727309e-01  -2.4873588733339599e-01  -2.4024842711664390e-01  -2.3094995845399313e-01  -2.2086789621972114e-01  -2.1003831518848132e-01  -1.9850700622493464e-01  -1.8633033186281134e-01  -1.7357578403608276e-01  -1.6032214876902109e-01  -1.4665919472985062e-01  -1.3268679421709920e-01  -1.1851354597193327e-01  -1.0425475659652211e-01  -9.0029944943277290e-02  -7.5960202185894707e-02  -6.2165158711199688e-02  -4.8760067577234167e-02  -3.5853140455758589e-02  -2.3544260756298709e-02  -1.1923197026122500e-02  -1.0678683931609619e-03  8.9556582554007804e-03  1.8092203709455551e-02  2.6296014170254477e-02  3.3530900456465014e-02  3.9770844638708391e-02  4.4999978294222615e-02  4.9212823228303948e-02  5.2414680030286979e-02  5.4623429054117961e-02  5.5872537106306838e-02  5.6211362900777440e-02  5.5705346093938693e-02  5.4435993623093752e-02  5.2498653975196638e-02  4.9999483030463872e-02  4.7051232825247771e-02  4.3768440402359977e-02  4.0262511311815893e-02  3.6637224398994764e-02  3.2985081657747550e-02  2.9384767074907853e-02  2.5899871666629128e-02  2.2578719178061504e-02  1.9455206578201899e-02  1.6550485062680739e-02  1.3875155457228918e-02  1.1431887710180565e-02  9.2182880821552737e-03  7.2298510652889841e-03  5.4628340386958102e-03  3.9168357309367482e-03  2.5969685969157393e-03  1.5154196623786351e-03  6.9329143300217650e-04  1.6117032378786360e-04  -3.2019126262296977e-05  -4.6255271660922751e-05  2.3234183064507221e-04  9.9103887176479866e-04  2.1283105649513479e-03  3.5481377653106068e-03  5.1510195548352782e-03  6.8383063004431874e-03  8.5165131070559820e-03  1.0102624083505596e-02  1.1528170899336311e-02  1.2741610980616259e-02  1.3708796362286722e-02  1.4411752885678419e-02  1.4846137988179834e-02  1.5017785063325583e-02  1.4938702451984554e-02  1.4622841090126033e-02  1.4081912072406283e-02  1.3321536025909953e-02  1.2338030844285865e-02  1.1116148051095716e-02  9.6280131214354896e-03  7.8333971399960952e-03  5.6812319630236479e-03  3.1120407485993647e-03  6.0824113295834010e-05  -3.5400457349379134e-03  -7.7582769769468374e-03  -1.2659491699409772e-02  -1.8305077500849799e-02  -2.4749732669511457e-02  -3.2038632940762847e-02  -4.0204120105143785e-02  -4.9262000915016417e-02  -5.9207949133988497e-02  -7.0014608961966013e-02  -8.1629796278325742e-02  -9.3976100457453637e-02  -1.0695211188726515e-01  -1.2043535145577856e-01  -1.3428675550542574e-01  -1.4