<?xml version="1.0"?>
<VTKFile type="UnstructuredGrid"  version="0.1"  >
<UnstructuredGrid>
<Piece  NumberOfPoints="16641" NumberOfCells="16384">
<Points>
<DataArray  type="Float64"  NumberOfComponents="3"  format="ascii">0 0 0  0.0078125 0 0  0.015625 0 0  0.0234375 0 0  0.03125 0 0  0.0390625 0 0  0.046875 0 0  0.0546875 0 0  0.0625 0 0  0.0703125 0 0  0.078125 0 0  0.0859375 0 0  0.09375 0 0  0.1015625 0 0  0.109375 0 0  0.1171875 0 0  0.125 0 0  0.1328125 0 0  0.140625 0 0  0.1484375 0 0  0.15625 0 0  0.1640625 0 0  0.171875 0 0  0.1796875 0 0  0.1875 0 0  0.1953125 0 0  0.203125 0 0  0.2109375 0 0  0.21875 0 0  0.2265625 0 0  0.234375 0 0  0.2421875 0 0  0.25 0 0  0.2578125 0 0  0.265625 0 0  0.2734375 0 0  0.28125 0 0  0.2890625 0 0  0.296875 0 0  0.3046875 0 0  0.3125 0 0  0.3203125 0 0  0.328125 0 0  0.3359375 0 0  0.34375 0 0  0.3515625 0 0  0.359375 0 0  0.3671875 0 0  0.375 0 0  0.3828125 0 0  0.390625 0 0  0.3984375 0 0  0.40625 0 0  0.4140625 0 0  0.421875 0 0  0.4296875 0 0  0.4375 0 0  0.4453125 0 0  0.453125 0 0  0.4609375 0 0  0.46875 0 0  0.4765625 0 0  0.484375 0 0  0.4921875 0 0  0.5 0 0  0.5078125 0 0  0.515625 0 0  0.5234375 0 0  0.53125 0 0  0.5390625 0 0  0.546875 0 0  0.5546875 0 0  0.5625 0 0  0.5703125 0 0  0.578125 0 0  0.5859375 0 0  0.59375 0 0  0.6015625 0 0  0.609375 0 0  0.6171875 0 0  0.625 0 0  0.6328125 0 0  0.640625 0 0  0.6484375 0 0  0.65625 0 0  0.6640625 0 0  0.671875 0 0  0.6796875 0 0  0.6875 0 0  0.6953125 0 0  0.703125 0 0  0.7109375 0 0  0.71875 0 0  0.7265625 0 0  0.734375 0 0  0.7421875 0 0  0.75 0 0  0.7578125 0 0  0.765625 0 0  0.7734375 0 0  0.78125 0 0  0.7890625 0 0  0.796875 0 0  0.8046875 0 0  0.8125 0 0  0.8203125 0 0  0.828125 0 0  0.8359375 0 0  0.84375 0 0  0.8515625 0 0  0.859375 0 0  0.8671875 0 0  0.875 0 0  0.8828125 0 0  0.890625 0 0  0.8984375 0 0  0.90625 0 0  0.9140625 0 0  0.921875 0 0  0.9296875 0 0  0.9375 0 0  0.9453125 0 0  0.953125 0 0  0.9609375 0 0  0.96875 0 0  0.9765625 0 0  0.984375 0 0  0.9921875 0 0  1 0 0  0 0.0078125 0  0.0078125 0.0078125 0  0.015625 0.0078125 0  0.0234375 0.0078125 0  0.03125 0.0078125 0  0.0390625 0.0078125 0  0.046875 0.0078125 0  0.0546875 0.0078125 0  0.0625 0.0078125 0  0.0703125 0.0078125 0  0.078125 0.0078125 0  0.0859375 0.0078125 0  0.09375 0.0078125 0  0.1015625 0.0078125 0  0.109375 0.0078125 0  0.1171875 0.0078125 0  0.125 0.0078125 0  0.1328125 0.0078125 0  0.140625 0.0078125 0  0.1484375 0.0078125 0  0.15625 0.0078125 0  0.1640625 0.0078125 0  0.171875 0.0078125 0  0.1796875 0.0078125 0  0.1875 0.0078125 0  0.1953125 0.0078125 0  0.203125 0.0078125 0  0.2109375 0.0078125 0  0.21875 0.0078125 0  0.2265625 0.0078125 0  0.234375 0.0078125 0  0.2421875 0.0078125 0  0.25 0.0078125 0  0.2578125 0.0078125 0  0.265625 0.0078125 0  0.2734375 0.0078125 0  0.28125 0.0078125 0  0.2890625 0.0078125 0  0.296875 0.0078125 0  0.3046875 0.0078125 0  0.3125 0.0078125 0  0.3203125 0.0078125 0  0.328125 0.0078125 0  0.3359375 0.0078125 0  0.34375 0.0078125 0  0.3515625 0.0078125 0  0.359375 0.0078125 0  0.3671875 0.0078125 0  0.375 0.0078125 0  0.3828125 0.0078125 0  0.390625 0.0078125 0  0.3984375 0.0078125 0  0.40625 0.0078125 0  0.4140625 0.0078125 0  0.421875 0.0078125 0  0.4296875 0.0078125 0  0.4375 0.0078125 0  0.4453125 0.0078125 0  0.453125 0.0078125 0  0.4609375 0.0078125 0  0.46875 0.0078125 0  0.4765625 0.0078125 0  0.484375 0.0078125 0  0.4921875 0.0078125 0  0.5 0.0078125 0  0.5078125 0.0078125 0  0.515625 0.0078125 0  0.5234375 0.0078125 0  0.53125 0.0078125 0  0.5390625 0.0078125 0  0.546875 0.0078125 0  0.5546875 0.0078125 0  0.5625 0.0078125 0  0.5703125 0.0078125 0  0.578125 0.0078125 0  0.5859375 0.0078125 0  0.59375 0.0078125 0  0.6015625 0.0078125 0  0.609375 0.0078125 0  0.6171875 0.0078125 0  0.625 0.0078125 0  0.6328125 0.0078125 0  0.640625 0.0078125 0  0.6484375 0.0078125 0  0.65625 0.0078125 0  0.6640625 0.0078125 0  0.671875 0.0078125 0  0.6796875 0.0078125 0  0.6875 0.0078125 0  0.6953125 0.0078125 0  0.703125 0.0078125 0  0.7109375 0.0078125 0  0.71875 0.0078125 0  0.7265625 0.0078125 0  0.734375 0.0078125 0  0.7421875 0.0078125 0  0.75 0.0078125 0  0.7578125 0.0078125 0  0.765625 0.0078125 0  0.7734375 0.0078125 0  0.78125 0.0078125 0  0.7890625 0.0078125 0  0.796875 0.0078125 0  0.8046875 0.0078125 0  0.8125 0.0078125 0  0.8203125 0.0078125 0  0.828125 0.0078125 0  0.8359375 0.0078125 0  0.84375 0.0078125 0  0.8515625 0.0078125 0  0.859375 0.0078125 0  0.8671875 0.0078125 0  0.875 0.0078125 0  0.8828125 0.0078125 0  0.890625 0.0078125 0  0.8984375 0.0078125 0  0.90625 0.0078125 0  0.9140625 0.0078125 0  0.921875 0.0078125 0  0.9296875 0.0078125 0  0.9375 0.0078125 0  0.9453125 0.0078125 0  0.953125 0.0078125 0  0.9609375 0.0078125 0  0.96875 0.0078125 0  0.9765625 0.0078125 0  0.984375 0.0078125 0  0.9921875 0.0078125 0  1 0.0078125 0  0 0.015625 0  0.0078125 0.015625 0  0.015625 0.015625 0  0.0234375 0.015625 0  0.03125 0.015625 0  0.0390625 0.015625 0  0.046875 0.015625 0  0.0546875 0.015625 0  0.0625 0.015625 0  0.0703125 0.015625 0  0.078125 0.015625 0  0.0859375 0.015625 0  0.09375 0.015625 0  0.1015625 0.015625 0  0.109375 0.015625 0  0.1171875 0.015625 0  0.125 0.015625 0  0.1328125 0.015625 0  0.140625 0.015625 0  0.1484375 0.015625 0  0.15625 0.015625 0  0.1640625 0.015625 0  0.171875 0.015625 0  0.1796875 0.015625 0  0.1875 0.015625 0  0.1953125 0.015625 0  0.203125 0.015625 0  0.2109375 0.015625 0  0.21875 0.015625 0  0.2265625 0.015625 0  0.234375 0.015625 0  0.2421875 0.015625 0  0.25 0.015625 0  0.2578125 0.015625 0  0.265625 0.015625 0  0.2734375 0.015625 0  0.28125 0.015625 0  0.2890625 0.015625 0  0.296875 0.015625 0  0.3046875 0.015625 0  0.3125 0.015625 0  0.3203125 0.015625 0  0.328125 0.015625 0  0.3359375 0.015625 0  0.34375 0.015625 0  0.3515625 0.015625 0  0.359375 0.015625 0  0.3671875 0.015625 0  0.375 0.015625 0  0.3828125 0.015625 0  0.390625 0.015625 0  0.3984375 0.015625 0  0.40625 0.015625 0  0.4140625 0.015625 0  0.421875 0.015625 0  0.4296875 0.015625 0  0.4375 0.015625 0  0.4453125 0.015625 0  0.453125 0.015625 0  0.4609375 0.015625 0  0.46875 0.015625 0  0.4765625 0.015625 0  0.484375 0.015625 0  0.4921875 0.015625 0  0.5 0.015625 0  0.5078125 0.015625 0  0.515625 0.015625 0  0.5234375 0.015625 0  0.53125 0.015625 0  0.5390625 0.015625 0  0.546875 0.015625 0  0.5546875 0.015625 0  0.5625 0.015625 0  0.5703125 0.015625 0  0.578125 0.015625 0  0.5859375 0.015625 0  0.59375 0.015625 0  0.6015625 0.015625 0  0.609375 0.015625 0  0.6171875 0.015625 0  0.625 0.015625 0  0.6328125 0.015625 0  0.640625 0.015625 0  0.6484375 0.015625 0  0.65625 0.015625 0  0.6640625 0.015625 0  0.671875 0.015625 0  0.6796875 0.015625 0  0.6875 0.015625 0  0.6953125 0.015625 0  0.703125 0.015625 0  0.7109375 0.015625 0  0.71875 0.015625 0  0.7265625 0.015625 0  0.734375 0.015625 0  0.7421875 0.015625 0  0.75 0.015625 0  0.7578125 0.015625 0  0.765625 0.015625 0  0.7734375 0.015625 0  0.78125 0.015625 0  0.7890625 0.015625 0  0.796875 0.015625 0  0.8046875 0.015625 0  0.8125 0.015625 0  0.8203125 0.015625 0  0.828125 0.015625 0  0.8359375 0.015625 0  0.84375 0.015625 0  0.8515625 0.015625 0  0.859375 0.015625 0  0.8671875 0.015625 0  0.875 0.015625 0  0.8828125 0.015625 0  0.890625 0.015625 0  0.8984375 0.015625 0  0.90625 0.015625 0  0.9140625 0.015625 0  0.921875 0.015625 0  0.9296875 0.015625 0  0.9375 0.015625 0  0.9453125 0.015625 0  0.953125 0.015625 0  0.9609375 0.015625 0  0.96875 0.015625 0  0.9765625 0.015625 0  0.984375 0.015625 0  0.9921875 0.015625 0  1 0.015625 0  0 0.0234375 0  0.0078125 0.0234375 0  0.015625 0.0234375 0  0.0234375 0.0234375 0  0.03125 0.0234375 0  0.0390625 0.0234375 0  0.046875 0.0234375 0  0.0546875 0.0234375 0  0.0625 0.0234375 0  0.0703125 0.0234375 0  0.078125 0.0234375 0  0.0859375 0.0234375 0  0.09375 0.0234375 0  0.1015625 0.0234375 0  0.109375 0.0234375 0  0.1171875 0.0234375 0  0.125 0.0234375 0  0.1328125 0.0234375 0  0.140625 0.0234375 0  0.1484375 0.0234375 0  0.15625 0.0234375 0  0.1640625 0.0234375 0  0.171875 0.0234375 0  0.1796875 0.0234375 0  0.1875 0.0234375 0  0.1953125 0.0234375 0  0.203125 0.0234375 0  0.2109375 0.0234375 0  0.21875 0.0234375 0  0.2265625 0.0234375 0  0.234375 0.0234375 0  0.2421875 0.0234375 0  0.25 0.0234375 0  0.2578125 0.0234375 0  0.265625 0.0234375 0  0.2734375 0.0234375 0  0.28125 0.0234375 0  0.2890625 0.0234375 0  0.296875 0.0234375 0  0.3046875 0.0234375 0  0.3125 0.0234375 0  0.3203125 0.0234375 0  0.328125 0.0234375 0  0.3359375 0.0234375 0  0.34375 0.0234375 0  0.3515625 0.0234375 0  0.359375 0.0234375 0  0.3671875 0.0234375 0  0.375 0.0234375 0  0.3828125 0.0234375 0  0.390625 0.0234375 0  0.3984375 0.0234375 0  0.40625 0.0234375 0  0.4140625 0.0234375 0  0.421875 0.0234375 0  0.4296875 0.0234375 0  0.4375 0.0234375 0  0.4453125 0.0234375 0  0.453125 0.0234375 0  0.4609375 0.0234375 0  0.46875 0.0234375 0  0.4765625 0.0234375 0  0.484375 0.0234375 0  0.4921875 0.0234375 0  0.5 0.0234375 0  0.5078125 0.0234375 0  0.515625 0.0234375 0  0.5234375 0.0234375 0  0.53125 0.0234375 0  0.5390625 0.0234375 0  0.546875 0.0234375 0  0.5546875 0.0234375 0  0.5625 0.0234375 0  0.5703125 0.0234375 0  0.578125 0.0234375 0  0.5859375 0.0234375 0  0.59375 0.0234375 0  0.6015625 0.0234375 0  0.609375 0.0234375 0  0.6171875 0.0234375 0  0.625 0.0234375 0  0.6328125 0.0234375 0  0.640625 0.0234375 0  0.6484375 0.0234375 0  0.65625 0.0234375 0  0.6640625 0.0234375 0  0.671875 0.0234375 0  0.6796875 0.0234375 0  0.6875 0.0234375 0  0.6953125 0.0234375 0  0.703125 0.0234375 0  0.7109375 0.0234375 0  0.71875 0.0234375 0  0.7265625 0.0234375 0  0.734375 0.0234375 0  0.7421875 0.0234375 0  0.75 0.0234375 0  0.7578125 0.0234375 0  0.765625 0.0234375 0  0.7734375 0.0234375 0  0.78125 0.0234375 0  0.7890625 0.0234375 0  0.796875 0.0234375 0  0.8046875 0.0234375 0  0.8125 0.0234375 0  0.8203125 0.0234375 0  0.828125 0.0234375 0  0.8359375 0.0234375 0  0.84375 0.0234375 0  0.8515625 0.0234375 0  0.859375 0.0234375 0  0.8671
[...]
<PointData  Scalars="v_sol"> 
<DataArray  type="Float64"  Name="v_sol"  format="ascii">-1.9722259171292511e-06  1.0918231499401736e-06  1.3271023981785603e-05  2.5855340172153926e-05  3.6326258702667244e-05  4.3821102545065300e-05  4.8155676219988183e-05  4.9436659935500878e-05  4.7995640419242943e-05  4.4332540783784650e-05  3.9061195740847018e-05  3.2843155184524631e-05  2.6322936704191005e-05  2.0071191393737930e-05  1.4543016158639242e-05  1.0052713097152965e-05  6.7646676372622448e-06  4.6975041004357472e-06  3.7388362357438050e-06  3.6682590206762826e-06  4.1868424663639336e-06  4.9516871713233562e-06  5.6128397232697911e-06  5.8490156609452014e-06  5.3969474987042216e-06  4.0687911094842459e-06  1.7546320334492624e-06  -1.5895281691425813e-06  -5.9654120297809110e-06  -1.1360967617797736e-05  -1.7774755738715782e-05  -2.5229104711098572e-05  -3.3772888207160010e-05  -4.3475577801297103e-05  -5.4414894283722525e-05  -6.6660979659090614e-05  -8.0259688504308706e-05  -9.5223373155070408e-05  -1.1152593739741338e-04  -1.2909892498907846e-04  -1.4783658435186519e-04  -1.6757420079355670e-04  -1.8810702982495465e-04  -2.0917047442348618e-04  -2.3044607354804372e-04  -2.5158105802717526e-04  -2.7218072456568389e-04  -2.9182015717867929e-04  -3.1005237457173133e-04  -3.2642804484880390e-04  -3.4050024246141275e-04  -3.5183365010894635e-04  -3.6001858958872006e-04  -3.6468157135119167e-04  -3.6549097020950128e-04  -3.6216455946385659e-04  -3.5447288625000312e-04  -3.4224284492225519e-04  -3.2535876136489386e-04  -3.0376388105493200e-04  -2.7746029974920299e-04  -2.4651093046774384e-04  -2.1103854874343097e-04  -1.7123568647445985e-04  -1.2734147636581854e-04  -7.9721560978430176e-05  -2.8796202049306522e-05  2.5072618896098730e-05  8.1257272844376688e-05  1.3907716348126952e-04  1.9778802264645994e-04  2.5653274590824930e-04  3.1438102366374910e-04  3.7032119987798320e-04  4.2328781333031683e-04  4.7217942680499026e-04  5.1589170325126927e-04  5.5335117111282464e-04  5.8355758795138816e-04  6.0562521079510223e-04  6.1882971893824302e-04  6.2265331925004288e-04  6.1680793459625686e-04  6.0123560734300844e-04  5.7628705054272417e-04  5.4253774621420517e-04  5.0074322692769625e-04  4.5200757604001960e-04  3.9765789582529723e-04  3.3915230714922913e-04  2.7797800488819013e-04  2.1578469187838789e-04  1.5417284441143888e-04  9.4595651163484649e-05  3.8348767808487559e-05  -1.3440946407404035e-05  -5.9807814931694255e-05  -1.0013475081341711e-04  -1.3400698782103319e-04  -1.6119543486545589e-04  -1.8179771703122105e-04  -1.9607718554406878e-04  -2.0446461240961565e-04  -2.0757068054878803e-04  -2.0607897074664523e-04  -2.0074514472814522e-04  -1.9234090230284495e-04  -1.8161958328886962e-04  -1.6928653260801966e-04  -1.5597367806893046e-04  -1.4222778369657482e-04  -1.2850239204649950e-04  -1.1515993688625201e-04  -1.0247437709636857e-04  -9.0640168647796845e-05  -7.9789162765907243e-05  -6.9991401514239298e-05  -6.1260336978863643e-05  -5.3549607436523056e-05  -4.6744140244373282e-05  -4.0647762775657360e-05  -3.4977495029455769e-05  -2.9365209191321710e-05  -2.3399248618922064e-05  -1.6707984789154240e-05  -9.1843172581679438e-06  -1.4804350116462418e-06  4.0236298711067494e-06  1.6020016113642789e-06  1.1984837288732268e-05  1.8878922324670120e-07  -6.5937102838419383e-05  -1.3051603780615741e-04  -1.8389149918427136e-04  -2.2180040142842164e-04  -2.4361933856571413e-04  -2.4990938681546186e-04  -2.4239165147569073e-04  -2.2362228347202250e-04  -1.9673829831868509e-04  -1.6511372120846029e-04  -1.3202893908270539e-04  -1.0038103213536200e-04  -7.2472929109393947e-05  -4.9888214949921714e-05  -3.3447698750402822e-05  -2.3233200885973400e-05  -1.8663852727129770e-05  -1.8613062122621364e-05  -2.1558011732565626e-05  -2.5754470621010872e-05  -2.9424727498023803e-05  -3.0939660056338745e-05  -2.8968505546716598e-05  -2.2568729034232639e-05  -1.1198681946173766e-05  5.3467819105179547e-06  2.7059096551212866e-05  5.3861363480986071e-05  8.5733718966130203e-05  1.2278607660905729e-04  1.6527154403990295e-04  2.1354906251236857e-04  2.6801452172122786e-04  3.2902210521823814e-04  3.9681219856716805e-04  4.7146299251226190e-04  5.5286092141550744e-04  6.4068224376337575e-04  7.3438381552676647e-04  8.3316929983186802e-04  9.3599501893274254e-04  1.0415549196186235e-03  1.1482983117731670e-03  1.2544546450281243e-03  1.3580651962387155e-03  1.4570175109172442e-03  1.5491188894708400e-03  1.6321214653920828e-03  1.7037661238089895e-03  1.7618978197235205e-03  1.8044721445332449e-03  1.8296137168019300e-03  1.8356514018857918e-03  1.8211492386208785e-03  1.7849259141315978e-03  1.7260687988852146e-03  1.6439415013221608e-03  1.5381888203825627e-03  1.4087408990308065e-03  1.2558180359835609e-03  1.0799435470569376e-03  8.8195049509176137e-04  6.6301053990573114e-04  4.2469340740107725e-04  1.6893554255797145e-04  -1.0197091128685736e-04  -3.8535050172179775e-04  -6.7785142814692182e-04  -9.7567648578487140e-04  -1.2745290305573368e-03  -1.5696408563522887e-03  -1.8558105902478871e-03  -2.1274950903230811e-03  -2.3789285310418418e-03  -2.6042830334644068e-03  -2.7978636322769338e-03  -2.9543322434610456e-03  -3.0689523005681765e-03  -3.1378394395083255e-03  -3.1581673272676894e-03  -3.1283970824514825e-03  -3.0485029780996289e-03  -2.9200282705350304e-03  -2.7460124496516557e-03  -2.5308361978953636e-03  -2.2803246677286226e-03  -2.0014156023978945e-03  -1.7017945706480628e-03  -1.3894783081113945e-03  -1.0728029192571664e-03  -7.5989238718500158e-04  -4.5816904151346440e-04  -1.7422043547807948e-04  8.6288075311042719e-05  3.1890760624342661e-04  5.2046831278952372e-04  6.8899165152943036e-04  8.2371706789107684e-04  9.2513259234030100e-04  9.9472709777043600e-04  1.0348294191272732e-03  1.0485177059131161e-03  1.0393164470234170e-03  1.0110383649170060e-03  9.6757058183314553e-04  9.1269279007560379e-04  8.4993095841273160e-04  7.8244332965753908e-04  7.1295055041888902e-04  6.4370467965661358e-04  5.7649577512946029e-04  5.1267783945959473e-04  4.5321674268544384e-04  3.9875192132798399e-04  3.4962611263413776e-04  3.0590190261711589e-04  2.6734588640988771e-04  2.3337920170290004e-04  2.0301822545347873e-04  1.7482468130948649e-04  1.4693244009651404e-04  1.1719080695843303e-04  8.3647789729262271e-05  4.5466232954608404e-05  5.6195182527028187e-06  -2.4188402887729383e-05  -6.9540199164997999e-06  2.2398888508864212e-05  -9.3166412110489460e-05  -3.2800898182671560e-04  -5.6481069515483626e-04  -7.6464268211877396e-04  -9.0936909585332900e-04  -9.9356434178053872e-04  -1.0181844136359878e-03  -9.8906766325000499e-04  -9.1559062100893967e-04  -8.0946672591937973e-04  -6.8344257831183769e-04  -5.5003426016155303e-04  -4.2042915876671402e-04  -3.0364936179845070e-04  -2.0601982871321141e-04  -1.3093517590118377e-04  -7.8891362873563867e-05  -4.7738858168157714e-05  -3.3117577225206010e-05  -2.9039637217331117e-05  -2.8580921245106297e-05  -2.4625792391393981e-05  -1.0581485684822114e-05  1.9039792793233546e-05  6.8268253716629091e-05  1.3961649635805970e-04  2.3430880610825387e-04  3.5271662475968739e-04  4.9486521042211120e-04  6.6086958372990037e-04  8.5119281601580806e-04  1.0666735570664856e-03  1.3083533355454156e-03  1.5771880248446842e-03  1.8737484442079802e-03  2.1979692645116788e-03  2.5489550764953807e-03  2.9248345159396984e-03  3.3226798044350917e-03  3.7384649302685605e-03  4.1670773927796056e-03  4.6023560207941296e-03  5.0371643998898263e-03  5.4635258058725183e-03  5.8728331603171363e-03  6.2560674908236627e-03  6.6040672248533668e-03  6.9077878781963059e-03  7.1586024676008149e-03  7.3485513251517155e-03  7.4705096022034357e-03  7.5183990917060536e-03  7.4872910011872188e-03  7.3734724978491793e-03  7.1744616308796975e-03  6.8889840204504052e-03  6.5169196417260693e-03  6.0592333420160308e-03  5.5179000009364272e-03  4.8958359129577496e-03  4.1968458441205263e-03  3.4255891517369196e-03  2.5875738619573797e-03  1.6891773966874048e-03  7.3765714226793784e-04  -2.5887730224226455e-04  -1.2912035702098989e-03  -2.3488237190182402e-03  -3.4203056731087686e-03  -4.4930086846768124e-03  -5.5531633714696093e-03  -6.5859333998615948e-03  -7.5755647597710481e-03  -8.5056070941515651e-03  -9.3592244894469285e-03  -1.0119596369726784e-02  -1.0770402241999271e-02  -1.1296378349068364e-02  -1.1683923707759015e-02  -1.1921721520130133e-02  -1.2001371090777490e-02  -1.1917908197895309e-02  -1.1670176768669554e-02  -1.1261331404237900e-02  -1.0698817871312031e-02  -9.9942810749451810e-03  -9.1632642077754418e-03  -8.2248208451950779e-03  -7.2008921817491231e-03  -6.1157446646241988e-03  -4.9945206532878124e-03  -3.8625966155369177e-03  -2.7450104856928830e-03  -1.6655780000487226e-03  -6.4589568937739443e-04  2.9517544790534693e-04  1.1420792112033481e-03  1.8829367213806791e-03  2.5097165160315256e-03  3.0182643395407949e-03  3.4084405596391510e-03  3.6838920980485118e-03  3.8514812120581175e-03  3.9209412745702483e-03  3.9041214354810700e-03  3.8142729861926888e-03  3.6653013313418239e-03  3.4710443478134690e-03  3.2446522312874447e-03  2.9981038722426434e-03  2.7418761445980582e-03  2.4847685283659699e-03  2.2338778770416433e-03  1.9946726514290559e-03  1.7710922952688074e-03  1.5656733771202901e-03  1.3795953241373493e-03  1.2126348221658599e-03  1.0630449663920870e-03  9.2740689280664836e-04  8.0058366049694869e-04  6.7596040678327002e-04  5.4624987384008846e-04  4.0540507293745936e-04  2.5209779235544700e-04  9.7862041812561029e-05  -2.3411450532937390e-05  -1.9479028616191161e-05  2.2740474521502850e-05  -3.1565491349487220e-04  -7.8299834247413773e-04  -1.2421775900547706e-03  -1.6292551624661432e-03  -1.9103803853670067e-03  -2.0728539759823860e-03  -2.1172781797894635e-03  -2.0543368799637242e-03  -1.9020297163614393e-03  -1.6831187764313410e-03  -1.4225157751769201e-03  -1.1448019730717499e-03  -8.7207253673910476e-04  -6.2226628220526459e-04  -4.0805713045413743e-04  -2.3631212154165044e-04  -1.0807273499354262e-04  -1.8996301502755629e-05  3.9806630809644284e-05  8.0606759217800695e-05  1.1764855520093409e-04  1.6562982005288723e-04  2.3824553852975017e-04  3.4700818739601640e-04  5.0054163266001711e-04  7.0445614597250178e-04  9.6177754323907843e-04  1.2737686232591951e-03  1.6408736320556491e-03  2.0634900429567101e-03  2.5423524764021412e-03  3.0784923286108646e-03  3.6728522118101869e-03  4.3257027253142304e-03  5.0359999743621545e-03  5.8008584998198096e-03  6.6151947946414763e-03  7.4715447155851173e-03  8.3599775006830464e-03  9.2681398756350678e-03  1.0181446920354118e-02  1.1083369074782292e-02  1.1955889422435060e-02  1.2780035922549841e-02  1.3536470515947434e-02  1.4206182975868202e-02  1.4771142742434150e-02  1.5214917356653085e-02  1.5523166668455953e-02  1.5684039298768656e-02  1.5688452547260506e-02  1.5530164420231619e-02  1.5205754659188830e-02  1.4714478093151689e-02  1.4058035600747481e-02  1.3240291011510504e-02  1.2266967385372593e-02  1.1145350054259675e-02  9.8840207384383472e-03  8.4926394366407910e-03  6.9817853626400559e-03  5.3628599570903308e-03  3.6480592785923102e-03  1.8503771375819843e-03  -1.6361729259196695e-05  -1.9371169251197391e-03  -3.8956877760913098e-03  -5.8749690509182469e-03  -7.8562527148955588e-03  -9.8193787108743699e-03  -1.1742687069407527e-02  -1.3603060346587236e-02  -1.5376083861438688e-02  -1.7036314105008745e-02  -1.8557685766024533e-02  -1.9914055084456404e-02  -2.1079879013073205e-02  -2.2031013032251277e-02  -2.2745599486914160e-02  -2.3205007442443415e-02  -2.3394744605993882e-02  -2.3305361350745554e-02  -2.2933234688359408e-02  -2.2280812799568575e-02  -2.1357230009008844e-02  -2.0178371212630882e-02  -1.8766354073225112e-02  -1.7149035331752664e-02  -1.5359257116141655e-02  -1.3433614285861302e-02  -1.1411857203925273e-02  -9.3354828237728060e-03  -7.2463897134840295e-03  -5.1855305665811152e-03  -3.1921170770765304e-03  -1.3026396805881993e-03  4.4998011050489901e-04  2.0375939259720229e-03  3.4376772643677249e-03  4.6339020400093019e-03  5.6163959629669039e-03  6.3820625108215413e-03  6.9348477699144222e-03  7.2849920973805998e-03  7.4484494920234352e-03  7.4457779585534812e-03  7.3008002483812466e-03  7.0391730662715604e-03  6.6869544731714406e-03  6.2693100627668223e-03  5.8094693607624245e-03  5.3279869281803926e-03  4.8423123563585907e-03  4.3666162194724925e-03  3.9118210460072078e-03  3.4856606480476852e-03  3.0927240485234841e-03  2.7343915425560835e-03  2.4086606132725980e-03  2.1099885802864735e-03  1.8293599405712537e-03  1.5549481935053149e-03  1.2738083331944726e-03  9.7546658707013038e-04  6.5783605914177510e-04  3.3900045819743968e-04  6.9188020585468309e-05  -2.6055042453390996e-05  1.8256060578552343e-05  -6.5112807878414366e-04  -1.4135169985898732e-03  -2.1324390648848864e-03  -2.7292976350012355e-03  -3.1580827783236599e-03  -3.3997494725948479e-03  -3.4551761408967816e-03  -3.3409012136903140e-03  -3.0849753089316153e-03  -2.7228592276171584e-03  -2.2933062389766581e-03  -1.8345015074735663e-03  -1.3807338594893246e-03  -9.5980455419977979e-04  -5.9127558247814324e-04  -2.8556866317012096e-04  -4.3869668963879391e-05  1.4123096651724197e-04  2.8444081760455205e-04  4.0590857873422663e-04  5.2895043062939785e-04  6.7758193871781378e-04  8.7416695247885372e-04  1.1375346808489720e-03  1.4818674719929597e-03  1.9165243654587624e-03  2.4467335124954449e-03  3.0748315025230749e-03  3.8015963953824451e-03  4.6272647694252525e-03  5.5519591422728779e-03  6.5754136212727238e-03  7.6961782514123993e-03  8.9106276171732821e-03  1.0212051424626625e-02  1.1589933496625732e-02  1.3029551127743637e-02  1.4511899008701526e-02  1.6013924339956239e-02  1.7509021054440944e-02  1.8967729884930083e-02  2.0358736241652558e-02  2.1649978268492753e-02  2.2809886893722309e-02  2.3808644090900936e-02  2.4619300621139636e-02  2.5218746043894187e-02  2.5588411368314398e-02  2.5714700841886148e-02  2.5589114653378115e-02  2.5208083671166000e-02  2.4572609122602267e-02  2.3687710266598126e-02  2.2561782450475441e-02  2.1205915895698448e-02  1.9633235596008044e-02  1.7858305281144418e-02  1.5896627442879695e-02  1.3764257634518049e-02  1.1477541607323836e-02  9.0529728598953644e-03  6.5071676696300531e-03  3.8569291106244638e-03  1.1194145308521741e-03  -1.6874934653033173e-03  -4.5452055997284285e-03  -7.4342702780635563e-03  -1.0333380053236661e-02  -1.3219642117173722e-02  -1.6068206997588090e-02  -1.8852110984377154e-02  -2.1542272401607266e-02  -2.4107583283777014e-02  -2.6515192799730993e-02  -2.8730969153885354e-02  -3.0720164939003432e-02  -3.2448283168252309e-02  -3.3882126322374799e-02  -3.4990994615645143e-02  -3.5747974904369234e-02  -3.6131265726111077e-02  -3.6125392640880195e-02  -3.5722255449622223e-02  -3.4922183558156697e-02  -3.3734119916130040e-02  -3.2175724847636145e-02  -3.0273376000104310e-02  -2.8061308404699684e-02  -2.5580556979184529e-02  -2.2877684299364466e-02  -2.0003549010096770e-02  -1.7011791576166866e-02  -1.3957209161090160e-02  -1.0894929140188905e-02  -7.8791183223130383e-03  -4.9616397131095813e-03  -2.1907958569290405e-03  3.8902611918511767e-04  2.7383729732742834e-03  4.8242518615123388e-03  6.6214756104209993e-03  8.1134277402899052e-03  9.2924472172703533e-03  1.0160812681102294e-02  1.0730297743654480e-02  1.1021465288223287e-02  1.1062360702617709e-02  1.0886653042597394e-02  1.0531502289275628e-02  1.0035355211305963e-02  9.4358936472339807e-03  8.7683218746670046e-03  8.0640844332563102e-03  7.3500498668410382e-03  6.6480628746021439e-03  5.9747424414871523e-03  5.3413315967905150e-03  4.7535172780662216e-03  4.2112019743549599e-03  3.7083520546847483e-03  3.2332363572183573e-03  2.7695254728219241e-03  2.2988356221693425e-03  1.8056203378491330e-03  1.2848111066703404e-03  7.5531034107761551e-04  2.7307114956534129e-04  -2.7161554376575875e-05  1.1137396607809115e-05  -1.0791323559186255e-03  -2.1942236776621468e-03  -3.2045126111533663e-03  -4.0245028425768877e-03  -4.6008687779919202e-03  -4.9112563617478861e-03  -4.9590168723512625e-03  -4.7685093641350890e-03  -4.3796652765091320e-03  -3.8422575925285540e-03  -3.2101477105819540e-03  -2.5359643424882083e-03  -1.8665761420879228e-03  -1.2395969511642463e-03  -6.8102547550991739e-04  -2.0402376978300043e-04  1.9121427329548514e-04  5.1656925034184072e-04  7.9415854314544973e-04  1.0536674197674787e-03  1.3290616493767502e-03  1.6550263240173889e-03  2.0635967836791485e-03  2.5815108853263886e-03  3.2287265401263264e-03  4.0182624829435808e-03  4.9571747669410323e-03  6.0482092407890663e-03  7.2914750752470989e-03  8.6854860913441641e-03  1.0227293396062535e-02  1.1911816475126966e-02  1.3730631960586650e-02  1.5670623102556160e-02  1.7712922913705260e-02  1.9832375953569840e-02  2.1997529478695238e-02  2.4171158488614102e-02  2.6311312157014228e-02  2.8372767711435549e-02  3.0308844854332738e-02  3.2073349752869816e-02  3.3622600908543819e-02  3.4917290459986768e-02  3.5924035257957079e-02  3.6616524534998876e-02  3.6976148911722566e-02  3.6992130844658570e-02  3.6661178277647151e-02  3.5986763633748212e-02  3.4978142523509670e-02  3.3649208727252133e-02  3.2017323398108533e-02  3.0102195082325169e-02  2.7924886821384592e-02  2.5506992399527598e-02  2.2870004839058572e-02  2.0034881758285366e-02  1.7021798470728058e-02  1.3850071331248071e-02  1.0538231227999049e-02  7.1042188215163895e-03  3.5656885091260521e-03  -5.9577436639386102e-05  -3.7533977155762514e-03  -7.4966823539911543e-03  -1.1268499514601894e-02  -1.5046229750648826e-02  -1.8804817303402339e-02  -2.2516450233814295e-02  -2.6150329367277843e-02  -2.9672514876835636e-02  -3.3045986990278532e-02  -3.6230899107681597e-02  -3.9185081349869040e-02  -4.1864810028205884e-02  -4.4225853956985410e-02  -4.6224787332819962e-02  -4.7820532625346079e-02  -4.8976072254228849e-02  -4.9660222325850947e-02  -4.9849384302648625e-02  -4.9529126181651825e-02  -4.8695283501328408e-02  -4.7354937718574644e-02  -4.5526664471030709e-02  -4.3240031581559528e-02  -4.0534853354963533e-02  -3.7459897161054363e-02  -3.4071333598053463e-02  -3.0430165108086077e-02  -2.6600708347251742e-02  -2.2649156946899032e-02  -1.8641784448257828e-02  -1.4643513140674691e-02  -1.0717229125584298e-02  -6.9235343123402971e-03  -3.3193436728397962e-03  4.3096429990962319e-05  3.1164560165193290e-03  5.8594741255732835e-03  8.2390320237569932e-03  1.0231987270937866e-02  1.1825775069720632e-02  1.3019912140964844e-02  1.3826236172057230e-02  1.4268296009323203e-02  1.4379965732149780e-02  1.4203236315947644e-02  1.3785478535022131e-02  1.3176499645549717e-02  1.2425721009536974e-02  1.1579761706074077e-02  1.0680549970056631e-02  9.7639644578033265e-03  8.8589466065910390e-03  7.9868839097061821e-03  7.1610905374646875e-03  6.3863722664301717e-03  5.6588015065372841e-03  4.9660366570499831e-03  4.2887261204899241e-03  3.6036139814236926e-03  2.8892104927109802e-03  2.1342646700782601e-03  1.3515904495171357e-03  5.9095613459968894e-04  -2.3230707268728613e-05  2.7325000398769759e-06  -1.5820952611518158e-03  -3.1013135265411636e-03  -4.4306279834286011e-03  -5.4815127268342248e-03  -6.1975601831293888e-03  -6.5569994915703330e-03  -6.5690932759992441e-03  -6.2690796204159325e-03  -5.7113747355818593e-03  -4.9620613184174897e-03  -4.0913757822493742e-03  -3.1668798333265766e-03  -2.2477772412721406e-03  -1.3806188551064023e-03  -5.9646578735870158e-04  9.0519889556036286e-05  6.8311307351667371e-04  1.1997508323342465e-03  1.6720001619324584e-03  2.1409110235728231e-03  2.6525374465117503e-03  3.2531204543818442e-03  3.9846311758465819e-03  4.8813889237694632e-03  5.9682706322010080e-03  7.2606851031704091e-03  8.7659599978519576e-03  1.0485296346509559e-02  1.2415459635107293e-02  1.4549612821009071e-02  1.6876988562175087e-02  1.9381674812999274e-02  2.2041113249230099e-02  2.4824839551207057e-02  2.7693841641445796e-02  3.0600802358133408e-02  3.3491232335370977e-02  3.6305374228949028e-02  3.8980672952141672e-02  4.1454642816500756e-02  4