<?xml version="1.0"?>
<VTKFile type="UnstructuredGrid"  version="0.1"  >
<UnstructuredGrid>
<Piece  NumberOfPoints="1089" NumberOfCells="1024">
<Points>
<DataArray  type="Float64"  NumberOfComponents="3"  format="ascii">0 0 0  0.03125 0 0  0.0625 0 0  0.09375 0 0  0.125 0 0  0.15625 0 0  0.1875 0 0  0.21875 0 0  0.25 0 0  0.28125 0 0  0.3125 0 0  0.34375 0 0  0.375 0 0  0.40625 0 0  0.4375 0 0  0.46875 0 0  0.5 0 0  0.53125 0 0  0.5625 0 0  0.59375 0 0  0.625 0 0  0.65625 0 0  0.6875 0 0  0.71875 0 0  0.75 0 0  0.78125 0 0  0.8125 0 0  0.84375 0 0  0.875 0 0  0.90625 0 0  0.9375 0 0  0.96875 0 0  1 0 0  0 0.03125 0  0.03125 0.03125 0  0.0625 0.03125 0  0.09375 0.03125 0  0.125 0.03125 0  0.15625 0.03125 0  0.1875 0.03125 0  0.21875 0.03125 0  0.25 0.03125 0  0.28125 0.03125 0  0.3125 0.03125 0  0.34375 0.03125 0  0.375 0.03125 0  0.40625 0.03125 0  0.4375 0.03125 0  0.46875 0.03125 0  0.5 0.03125 0  0.53125 0.03125 0  0.5625 0.03125 0  0.59375 0.03125 0  0.625 0.03125 0  0.65625 0.03125 0  0.6875 0.03125 0  0.71875 0.03125 0  0.75 0.03125 0  0.78125 0.03125 0  0.8125 0.03125 0  0.84375 0.03125 0  0.875 0.03125 0  0.90625 0.03125 0  0.9375 0.03125 0  0.96875 0.03125 0  1 0.03125 0  0 0.0625 0  0.03125 0.0625 0  0.0625 0.0625 0  0.09375 0.0625 0  0.125 0.0625 0  0.15625 0.0625 0  0.1875 0.0625 0  0.21875 0.0625 0  0.25 0.0625 0  0.28125 0.0625 0  0.3125 0.0625 0  0.34375 0.0625 0  0.375 0.0625 0  0.40625 0.0625 0  0.4375 0.0625 0  0.46875 0.0625 0  0.5 0.0625 0  0.53125 0.0625 0  0.5625 0.0625 0  0.59375 0.0625 0  0.625 0.0625 0  0.65625 0.0625 0  0.6875 0.0625 0  0.71875 0.0625 0  0.75 0.0625 0  0.78125 0.0625 0  0.8125 0.0625 0  0.84375 0.0625 0  0.875 0.0625 0  0.90625 0.0625 0  0.9375 0.0625 0  0.96875 0.0625 0  1 0.0625 0  0 0.09375 0  0.03125 0.09375 0  0.0625 0.09375 0  0.09375 0.09375 0  0.125 0.09375 0  0.15625 0.09375 0  0.1875 0.09375 0  0.21875 0.09375 0  0.25 0.09375 0  0.28125 0.09375 0  0.3125 0.09375 0  0.34375 0.09375 0  0.375 0.09375 0  0.40625 0.09375 0  0.4375 0.09375 0  0.46875 0.09375 0  0.5 0.09375 0  0.53125 0.09375 0  0.5625 0.09375 0  0.59375 0.09375 0  0.625 0.09375 0  0.65625 0.09375 0  0.6875 0.09375 0  0.71875 0.09375 0  0.75 0.09375 0  0.78125 0.09375 0  0.8125 0.09375 0  0.84375 0.09375 0  0.875 0.09375 0  0.90625 0.09375 0  0.9375 0.09375 0  0.96875 0.09375 0  1 0.09375 0  0 0.125 0  0.03125 0.125 0  0.0625 0.125 0  0.09375 0.125 0  0.125 0.125 0  0.15625 0.125 0  0.1875 0.125 0  0.21875 0.125 0  0.25 0.125 0  0.28125 0.125 0  0.3125 0.125 0  0.34375 0.125 0  0.375 0.125 0  0.40625 0.125 0  0.4375 0.125 0  0.46875 0.125 0  0.5 0.125 0  0.53125 0.125 0  0.5625 0.125 0  0.59375 0.125 0  0.625 0.125 0  0.65625 0.125 0  0.6875 0.125 0  0.71875 0.125 0  0.75 0.125 0  0.78125 0.125 0  0.8125 0.125 0  0.84375 0.125 0  0.875 0.125 0  0.90625 0.125 0  0.9375 0.125 0  0.96875 0.125 0  1 0.125 0  0 0.15625 0  0.03125 0.15625 0  0.0625 0.15625 0  0.09375 0.15625 0  0.125 0.15625 0  0.15625 0.15625 0  0.1875 0.15625 0  0.21875 0.15625 0  0.25 0.15625 0  0.28125 0.15625 0  0.3125 0.15625 0  0.34375 0.15625 0  0.375 0.15625 0  0.40625 0.15625 0  0.4375 0.15625 0  0.46875 0.15625 0  0.5 0.15625 0  0.53125 0.15625 0  0.5625 0.15625 0  0.59375 0.15625 0  0.625 0.15625 0  0.65625 0.15625 0  0.6875 0.15625 0  0.71875 0.15625 0  0.75 0.15625 0  0.78125 0.15625 0  0.8125 0.15625 0  0.84375 0.15625 0  0.875 0.15625 0  0.90625 0.15625 0  0.9375 0.15625 0  0.96875 0.15625 0  1 0.15625 0  0 0.1875 0  0.03125 0.1875 0  0.0625 0.1875 0  0.09375 0.1875 0  0.125 0.1875 0  0.15625 0.1875 0  0.1875 0.1875 0  0.21875 0.1875 0  0.25 0.1875 0  0.28125 0.1875 0  0.3125 0.1875 0  0.34375 0.1875 0  0.375 0.1875 0  0.40625 0.1875 0  0.4375 0.1875 0  0.46875 0.1875 0  0.5 0.1875 0  0.53125 0.1875 0  0.5625 0.1875 0  0.59375 0.1875 0  0.625 0.1875 0  0.65625 0.1875 0  0.6875 0.1875 0  0.71875 0.1875 0  0.75 0.1875 0  0.78125 0.1875 0  0.8125 0.1875 0  0.84375 0.1875 0  0.875 0.1875 0  0.90625 0.1875 0  0.9375 0.1875 0  0.96875 0.1875 0  1 0.1875 0  0 0.21875 0  0.03125 0.21875 0  0.0625 0.21875 0  0.09375 0.21875 0  0.125 0.21875 0  0.15625 0.21875 0  0.1875 0.21875 0  0.21875 0.21875 0  0.25 0.21875 0  0.28125 0.21875 0  0.3125 0.21875 0  0.34375 0.21875 0  0.375 0.21875 0  0.40625 0.21875 0  0.4375 0.21875 0  0.46875 0.21875 0  0.5 0.21875 0  0.53125 0.21875 0  0.5625 0.21875 0  0.59375 0.21875 0  0.625 0.21875 0  0.65625 0.21875 0  0.6875 0.21875 0  0.71875 0.21875 0  0.75 0.21875 0  0.78125 0.21875 0  0.8125 0.21875 0  0.84375 0.21875 0  0.875 0.21875 0  0.90625 0.21875 0  0.9375 0.21875 0  0.96875 0.21875 0  1 0.21875 0  0 0.25 0  0.03125 0.25 0  0.0625 0.25 0  0.09375 0.25 0  0.125 0.25 0  0.15625 0.25 0  0.1875 0.25 0  0.21875 0.25 0  0.25 0.25 0  0.28125 0.25 0  0.3125 0.25 0  0.34375 0.25 0  0.375 0.25 0  0.40625 0.25 0  0.4375 0.25 0  0.46875 0.25 0  0.5 0.25 0  0.53125 0.25 0  0.5625 0.25 0  0.59375 0.25 0  0.625 0.25 0  0.65625 0.25 0  0.6875 0.25 0  0.71875 0.25 0  0.75 0.25 0  0.78125 0.25 0  0.8125 0.25 0  0.84375 0.25 0  0.875 0.25 0  0.90625 0.25 0  0.9375 0.25 0  0.96875 0.25 0  1 0.25 0  0 0.28125 0  0.03125 0.28125 0  0.0625 0.28125 0  0.09375 0.28125 0  0.125 0.28125 0  0.15625 0.28125 0  0.1875 0.28125 0  0.21875 0.28125 0  0.25 0.28125 0  0.28125 0.28125 0  0.3125 0.28125 0  0.34375 0.28125 0  0.375 0.28125 0  0.40625 0.28125 0  0.4375 0.28125 0  0.46875 0.28125 0  0.5 0.28125 0  0.53125 0.28125 0  0.5625 0.28125 0  0.59375 0.28125 0  0.625 0.28125 0  0.65625 0.28125 0  0.6875 0.28125 0  0.71875 0.28125 0  0.75 0.28125 0  0.78125 0.28125 0  0.8125 0.28125 0  0.84375 0.28125 0  0.875 0.28125 0  0.90625 0.28125 0  0.9375 0.28125 0  0.96875 0.28125 0  1 0.28125 0  0 0.3125 0  0.03125 0.3125 0  0.0625 0.3125 0  0.09375 0.3125 0  0.125 0.3125 0  0.15625 0.3125 0  0.1875 0.3125 0  0.21875 0.3125 0  0.25 0.3125 0  0.28125 0.3125 0  0.3125 0.3125 0  0.34375 0.3125 0  0.375 0.3125 0  0.40625 0.3125 0  0.4375 0.3125 0  0.46875 0.3125 0  0.5 0.3125 0  0.53125 0.3125 0  0.5625 0.3125 0  0.59375 0.3125 0  0.625 0.3125 0  0.65625 0.3125 0  0.6875 0.3125 0  0.71875 0.3125 0  0.75 0.3125 0  0.78125 0.3125 0  0.8125 0.3125 0  0.84375 0.3125 0  0.875 0.3125 0  0.90625 0.3125 0  0.9375 0.3125 0  0.96875 0.3125 0  1 0.3125 0  0 0.34375 0  0.03125 0.34375 0  0.0625 0.34375 0  0.09375 0.34375 0  0.125 0.34375 0  0.15625 0.34375 0  0.1875 0.34375 0  0.21875 0.34375 0  0.25 0.34375 0  0.28125 0.34375 0  0.3125 0.34375 0  0.34375 0.34375 0  0.375 0.34375 0  0.40625 0.34375 0  0.4375 0.34375 0  0.46875 0.34375 0  0.5 0.34375 0  0.53125 0.34375 0  0.5625 0.34375 0  0.59375 0.34375 0  0.625 0.34375 0  0.65625 0.34375 0  0.6875 0.34375 0  0.71875 0.34375 0  0.75 0.34375 0  0.78125 0.34375 0  0.8125 0.34375 0  0.84375 0.34375 0  0.875 0.34375 0  0.90625 0.34375 0  0.9375 0.34375 0  0.96875 0.34375 0  1 0.34375 0  0 0.375 0  0.03125 0.375 0  0.0625 0.375 0  0.09375 0.375 0  0.125 0.375 0  0.15625 0.375 0  0.1875 0.375 0  0.21875 0.375 0  0.25 0.375 0  0.28125 0.375 0  0.3125 0.375 0  0.34375 0.375 0  0.375 0.375 0  0.40625 0.375 0  0.4375 0.375 0  0.46875 0.375 0  0.5 0.375 0  0.53125 0.375 0  0.5625 0.375 0  0.59375 0.375 0  0.625 0.375 0  0.65625 0.375 0  0.6875 0.375 0  0.71875 0.375 0  0.75 0.375 0  0.78125 0.375 0  0.8125 0.375 0  0.84375 0.375 0  0.875 0.375 0  0.90625 0.375 0  0.9375 0.375 0  0.96875 0.375 0  1 0.375 0  0 0.40625 0  0.03125 0.40625 0  0.0625 0.40625 0  0.09375 0.40625 0  0.125 0.40625 0  0.15625 0.40625 0  0.1875 0.40625 0  0.21875 0.40625 0  0.25 0.40625 0  0.28125 0.40625 0  0.3125 0.40625 0  0.34375 0.40625 0  0.375 0.40625 0  0.40625 0.40625 0  0.4375 0.40625 0  0.46875 0.40625 0  0.5 0.40625 0  0.53125 0.40625 0  0.5625 0.40625 0  0.59375 0.40625 0  0.625 0.40625 0  0.65625 0.40625 0  0.6875 0.40625 0  0.71875 0.40625 0  0.75 0.40625 0  0.78125 0.40625 0  0.8125 0.40625 0  0.84375 0.40625 0  0.875 0.40625 0  0.90625 0.40625 0  0.9375 0.40625 0  0.96875 0.40625 0  1 0.40625 0  0 0.4375 0  0.03125 0.4375 0  0.0625 0.4375 0  0.09375 0.4375 0  0.125 0.4375 0  0.15625 0.4375 0  0.1875 0.4375 0  0.21875 0.4375 0  0.25 0.4375 0  0.28125 0.4375 0  0.3125 0.4375 0  0.34375 0.4375 0  0.375 0.4375 0  0.40625 0.4375 0  0.4375 0.4375 0  0.46875 0.4375 0  0.5 0.4375 0  0.53125 0.4375 0  0.5625 0.4375 0  0.59375 0.4375 0  0.625 0.4375 0  0.65625 0.4375 0  0.6875 0.4375 0  0.71875 0.4375 0  0.75 0.4375 0  0.78125 0.4375 0  0.8125 0.4375 0  0.84375 0.4375 0  0.875 0.4375 0  0.90625 0.4375 0  0.9375 0.4375 0  0.96875 0.4375 0  1 0.4375 0  0 0.46875 0  0.03125 0.46875 0  0.0625 0.46875 0  0.09375 0.46875 0  0.125 0.46875 0  0.15625 0.46875 0  0.1875 0.46875 0  0.21875 0.46875 0  0.25 0.46875 0  0.28125 0.46875 0  0.3125 0.46875 0  0.34375 0.46875 0  0.375 0.46875 0  0.40625 0.46875 0  0.4375 0.46875 0  0.46875 0.46875 0  0.5 0.46875 0  0.53125 0.46875 0  0.5625 0.46875 0  0.59375 0.46875 0  0.625 0.46875 0  0.65625 0.46875 0  0.6875 0.46875 0  0.71875 0.46875 0  0.75 0.46875 0  0.78125 0.46875 0  0.8125 0.46875 0  0.84375 0.46875 0  0.875 0.46875 0  0.90625 0.46875 0  0.9375 0.46875 0  0.96875 0.46875 0  1 0.46875 0  0 0.5 0  0.03125 0.5 0  0.0625 0.5 0  0.09375 0.5 0  0.125 0.5 0  0.15625 0.5 0  0.1875 0.5 0  0.21875 0.5 0  0.25 0.5 0  0.28125 0.5 0  0.3125 0.5 0  0.34375 0.5 0  0.375 0.5 0  0.40625 0.5 0  0.4375 0.5 0  0.46875 0.5 0  0.5 0.5 0  0.53125 0.5 0  0.5625 0.5 0  0.59375 0.5 0  0.625 0.5 0  0.65625 0.5 0  0.6875 0.5 0  0.71875 0.5 0  0.75 0.5 0  0.78125 0.5 0  0.8125 0.5 0  0.84375 0.5 0  0.875 0.5 0  0.90625 0.5 0  0.9375 0.5 0  0.96875 0.5 0  1 0.5 0  0 0.53125 0  0.03125 0.53125 0  0.0625 0.53125 0  0.09375 0.53125 0  0.125 0.53125 0  0.15625 0.53125 0  0.1875 0.53125 0  0.21875 0.53125 0  0.25 0.53125 0  0.28125 0.53125 0  0.3125 0.53125 0  0.34375 0.53125 0  0.375 0.53125 0  0.40625 0.53125 0  0.4375 0.53125 0  0.46875 0.53125 0  0.5 0.53125 0  0.53125 0.53125 0  0.5625 0.53125 0  0.59375 0.53125 0  0.625 0.53125 0  0.65625 0.53125 0  0.6875 0.53125 0  0.71875 0.53125 0  0.75 0.53125 0  0.78125 0.531
[...]
<PointData  Scalars="u_sol"> 
<DataArray  type="Float64"  Name="u_sol"  format="ascii">-6.5847457697785539e-06  -1.3893999710417896e-04  3.0202344879079468e-04  1.0184816064452323e-03  1.2436331299967472e-03  1.6101172547169720e-03  2.8687987351415632e-03  7.7590910111488651e-04  3.4653305987905896e-03  1.5361137936117413e-02  2.5573961519031123e-02  3.1130931068511312e-02  2.9183434315909199e-02  1.7948113464131936e-02  -5.5280927169945604e-04  -2.1678310711989821e-02  -4.0166062281657498e-02  -5.0962594097019559e-02  -4.8888408428590692e-02  -3.2079504143423865e-02  -3.5402827913951834e-03  2.8660833466442714e-02  5.2637834659638047e-02  5.9230128358230438e-02  4.8357535022947450e-02  3.0973901597411965e-02  1.5120911023204479e-02  3.0282087029648076e-03  -9.3024137133647974e-04  -1.4634890767408367e-03  -8.1715603430626289e-04  -3.2452285741956731e-04  3.8653029277681656e-05  -2.6760791360935771e-04  1.2150009658991150e-03  5.9957386132024103e-03  1.1094691129954067e-02  1.4385816932619117e-02  1.5120875558473973e-02  1.5318744926795535e-02  1.9154146745980902e-02  1.5149619941005273e-02  -9.4751301063119488e-03  -6.0231761790745041e-02  -1.3094478966829834e-01  -2.0707797246779411e-01  -2.7439470838877622e-01  -3.2454395210164472e-01  -3.5448968728052077e-01  -3.6394726612408951e-01  -3.5346859881482495e-01  -3.2433943047069441e-01  -2.7698972885483319e-01  -2.1225679006949233e-01  -1.3425892616685633e-01  -5.2725390971917974e-02  1.7039470133920247e-02  6.1477585345465789e-02  7.6430063937446030e-02  7.0054021107321243e-02  5.1316449048708544e-02  2.7581765529637332e-02  1.1706683722228143e-02  3.3975176068946700e-03  2.9643485157646444e-04  -7.6594279907210778e-05  -6.4490978675092693e-04  3.0495332897109264e-03  1.0726983925755643e-02  1.6000391523825160e-02  1.5692697257196415e-02  1.3861232337095280e-02  8.3098094310012239e-03  -1.9381253712654461e-02  -8.5042426496778747e-02  -1.8093020420109224e-01  -2.7647431552876295e-01  -3.5292106644136678e-01  -4.0531542081443822e-01  -4.3752833736847124e-01  -4.5550155477858834e-01  -4.6398242523363564e-01  -4.6563403490963812e-01  -4.6143126417331382e-01  -4.5039207619159871e-01  -4.3020906588284485e-01  -3.9666070511478640e-01  -3.4407952359126331e-01  -2.6893919658359311e-01  -1.7667630506046142e-01  -8.6617586463525909e-02  -2.1825873048158632e-02  1.1940469185693045e-02  2.8466091901872569e-02  3.1789563275890040e-02  2.0337695679454898e-02  9.6809671554475563e-03  2.6238789416363610e-03  -4.8844798143694781e-04  -1.2562031086792815e-03  5.9361660416556369e-03  1.5740108732665674e-02  1.5198800563125545e-02  8.6964051551685559e-03  -5.7262328095646119e-03  -5.4078899954784009e-02  -1.4807709885453704e-01  -2.5642730710540246e-01  -3.4458279987544310e-01  -4.0153236172392676e-01  -4.3179788039826522e-01  -4.4582767318760447e-01  -4.5176180431919544e-01  -4.5387415757255012e-01  -4.5386863962430762e-01  -4.5253387967910702e-01  -4.5061198698240096e-01  -4.4923928316107697e-01  -4.4870550110481405e-01  -4.4714055375899781e-01  -4.3795768345527891e-01  -4.0825278663967635e-01  -3.4338180499498983e-01  -2.4095742392071481e-01  -1.2611085158551336e-01  -4.2144090352026278e-02  -6.2423601878554844e-03  8.4779155778687554e-03  1.5956356478989901e-02  1.0077995096781214e-02  3.1084152440994973e-03  -5.5190223109488114e-04  -1.8606545380820581e-03  9.7232255940574025e-03  1.5456145988453266e-02  5.4185654793934973e-03  -1.4963730191113998e-02  -7.3802134336534389e-02  -1.7766867922968632e-01  -2.8434197632361619e-01  -3.5951955251482515e-01  -3.9734795715069821e-01  -4.0889386537973110e-01  -4.0782460986295066e-01  -4.0281536766198595e-01  -3.9759675511348458e-01  -3.9331817873441954e-01  -3.9001710157618513e-01  -3.8749144222446741e-01  -3.8561075772415920e-01  -3.8463071177813829e-01  -3.8619060559720519e-01  -3.9282297192722743e-01  -4.0613936757921493e-01  -4.2172259598136091e-01  -4.2255833351456351e-01  -3.8120225587954076e-01  -2.8089576813337669e-01  -1.4575124235618317e-01  -4.0862074126073449e-02  -3.8015931724335976e-03  4.0246214683240080e-03  7.9090502027289108e-03  3.3063387170369795e-03  -6.3848262499250090e-04  -1.7734360663646551e-03  1.0590417995159696e-02  5.7657511953951007e-03  -1.7284083449953226e-02  -7.4897816685834770e-02  -1.7737513741902514e-01  -2.8010361987127763e-01  -3.4561444757229043e-01  -3.7020717316907353e-01  -3.7030007519653574e-01  -3.6275296513451716e-01  -3.5655490117745359e-01  -3.5431642951470871e-01  -3.5537303855106839e-01  -3.5784247439252237e-01  -3.5994891618205205e-01  -3.6055982268213005e-01  -3.5936387259744684e-01  -3.5669387400962255e-01  -3.5289050740402483e-01  -3.4916280406774830e-01  -3.4890251744682282e-01  -3.5812248114021955e-01  -3.7983816558553535e-01  -4.0006472208509863e-01  -3.8155736466167811e-01  -2.9058190095782432e-01  -1.4534697556906132e-01  -2.9660928188789258e-02  1.5357244582734997e-03  3.5006421816872087e-03  1.2446134598541082e-03  -3.2897268604519116e-04  -2.3225784028687891e-05  5.2572865111913400e-03  -1.3131108666552737e-02  -6.2880720914175084e-02  -1.5568622320234579e-01  -2.5522764081693444e-01  -3.1741134056130305e-01  -3.3629347971717483e-01  -3.3169420479161010e-01  -3.2347784001166324e-01  -3.2041648259737709e-01  -3.2286825899254901e-01  -3.2759524867707324e-01  -3.3163124715252040e-01  -3.3386848851201284e-01  -3.3466263652246514e-01  -3.3480063233114454e-01  -3.3481625819864763e-01  -3.3477715142046161e-01  -3.3448845093229240e-01  -3.3308178866019400e-01  -3.2917523098338686e-01  -3.2329902112741438e-01  -3.2267670511821478e-01  -3.3893011822992442e-01  -3.6601062825174857e-01  -3.6000862034323911e-01  -2.7232525088526183e-01  -1.2104351055548072e-01  -1.0988594287893706e-02  2.3225303234794786e-03  3.5053558806779211e-03  -3.7931992794683307e-04  2.4139714846795808e-03  -5.1442842493806375e-03  -4.3853043691481665e-02  -1.2099204337993161e-01  -2.1568854543977239e-01  -2.8095679984378330e-01  -3.0122917583883202e-01  -2.9611269529560158e-01  -2.8857994955476762e-01  -2.8795067976289396e-01  -2.9246974802102677e-01  -2.9712315639622577e-01  -2.9934942789121533e-01  -2.9977146392811121e-01  -2.9975670600754450e-01  -2.9990949728548949e-01  -3.0016190457817921e-01  -3.0037782236594335e-01  -3.0071197657389775e-01  -3.0158862358054106e-01  -3.0348383950216873e-01  -3.0605081478052137e-01  -3.0652898600007822e-01  -3.0109475828971427e-01  -2.9435268928201552e-01  -3.0444484344361056e-01  -3.3284694093389489e-01  -3.2776801269854322e-01  -2.3067570205706192e-01  -7.6602243124849395e-02  6.6130760551445589e-03  -7.2692348056382613e-05  -3.2791251502895641e-04  4.1978256063804602e-03  -1.9771831104128872e-02  -8.0176381807610039e-02  -1.6487592709069721e-01  -2.3624118317786810e-01  -2.6485639906557096e-01  -2.6265818268273872e-01  -2.5550304379696048e-01  -2.5554346459604538e-01  -2.6048429644220700e-01  -2.6438788071146474e-01  -2.6547977398978356e-01  -2.6576980129977829e-01  -2.6671202293519486e-01  -2.6812616102342823e-01  -2.6941555263352612e-01  -2.7032493063464907e-01  -2.7087322100826916e-01  -2.7111087838709341e-01  -2.7107645013945136e-01  -2.7107005797686096e-01  -2.7207004545563684e-01  -2.7528269653843501e-01  -2.7876049639656586e-01  -2.7547419518026189e-01  -2.6643787532418217e-01  -2.7454942776780705e-01  -3.0277917997071740e-01  -2.8563940277719968e-01  -1.6649933403786771e-01  -2.3713232427915832e-02  4.6827403698041911e-03  -1.4703253425987996e-03  5.3501738859391126e-03  -3.5221696191469309e-02  -1.0691515404833378e-01  -1.8079234529543739e-01  -2.2345797128297482e-01  -2.2943007470393320e-01  -2.2310280625929541e-01  -2.2236623510333139e-01  -2.2716720846503860e-01  -2.3102931246706251e-01  -2.3205901738818813e-01  -2.3287739112806388e-01  -2.3475402485895361e-01  -2.3682855865311209e-01  -2.3845696144382736e-01  -2.3968272654291728e-01  -2.4071205460292119e-01  -2.4165073395981612e-01  -2.4254873843957825e-01  -2.4337315079742125e-01  -2.4386722226987861e-01  -2.4366580210189509e-01  -2.4339014789865993e-01  -2.4549280019473543e-01  -2.4958995473261575e-01  -2.4675509696246331e-01  -2.3717849017780571e-01  -2.4865457335812777e-01  -2.7308619885702790e-01  -2.2632357080176352e-01  -8.5142456831644592e-02  1.3838495606525050e-02  -2.5758574555738967e-03  5.8029593236210266e-03  -4.5067200119832569e-02  -1.1572289912294310e-01  -1.7137954797224861e-01  -1.9277222631288690e-01  -1.9079097916211696e-01  -1.8866488220872998e-01  -1.9278198007820185e-01  -1.9732283818261323e-01  -1.9898406582520367e-01  -2.0017913151240430e-01  -2.0246944203482525e-01  -2.0469451488538179e-01  -2.0628181101239992e-01  -2.0756486863409029e-01  -2.0878145734256542e-01  -2.0995324328103251e-01  -2.1107070858509117e-01  -2.1215209829759207e-01  -2.1328481881902878e-01  -2.1458597067352292e-01  -2.1585918271543383e-01  -2.1617755666999186e-01  -2.1543650557132191e-01  -2.1684259793326668e-01  -2.2048162993663686e-01  -2.1558713726644749e-01  -2.0765536415956282e-01  -2.2675338063918718e-01  -2.3440094236034803e-01  -1.3899780295943562e-01  -1.1203585120947455e-02  2.9545700748075552e-03  5.7152339672062779e-03  -4.6362332400035837e-02  -1.0793171800438218e-01  -1.4663994706483399e-01  -1.5667336617362909e-01  -1.5509262602054233e-01  -1.5762240203823999e-01  -1.6290067702950886e-01  -1.6586319384272064e-01  -1.6738710680072647e-01  -1.6976977265353693e-01  -1.7219217646014987e-01  -1.7390980341625981e-01  -1.7545069972710528e-01  -1.7704510623377759e-01  -1.7860493477481437e-01  -1.8006321139191039e-01  -1.8142311371392789e-01  -1.8270115929270872e-01  -1.8387886633442310e-01  -1.8498114212303018e-01  -1.8626036324709391e-01  -1.8779903250698435e-01  -1.8833293641693133e-01  -1.8738239274447291e-01  -1.8900366592001752e-01  -1.9112994857557261e-01  -1.8238499975327596e-01  -1.8151057305332469e-01  -2.0470166432880393e-01  -1.6707292085213063e-01  -4.1705388525957121e-02  1.2542417219398706e-02  5.4630130110321709e-03  -4.0219462754161918e-02  -8.9595479863016053e-02  -1.1577771625904081e-01  -1.2147428966632462e-01  -1.2269007077883545e-01  -1.2759761920937682e-01  -1.3223332242027486e-01  -1.3456696121228059e-01  -1.3685580948326831e-01  -1.3951813060189636e-01  -1.4152940838401187e-01  -1.4327083164079948e-01  -1.4509680971623673e-01  -1.4684336352294550e-01  -1.4846813165080402e-01  -1.5003814385606290e-01  -1.5160205275826397e-01  -1.5316589090583410e-01  -1.5472423998581430e-01  -1.5618828145383831e-01  -1.5741265594230652e-01  -1.5867079210589605e-01  -1.6024309235745221e-01  -1.6046012149357794e-01  -1.5945597831882996e-01  -1.6185667705883647e-01  -1.5983491234466488e-01  -1.4942067885495416e-01  -1.6216015965866526e-01  -1.6227293006007931e-01  -6.0246963610435515e-02  1.8212237477447182e-02  5.0888767265367951e-03  -2.9575928603659582e-02  -6.6576470313929520e-02  -8.4341255368455242e-02  -8.9013920226369295e-02  -9.2437668386228661e-02  -9.7793337447113771e-02  -1.0163238462359765e-01  -1.0406663534228565e-01  -1.0673969025642527e-01  -1.0914458987688372e-01  -1.1104618501559235e-01  -1.1296277076852217e-01  -1.1482026334887269e-01  -1.1655072945768177e-01  -1.1826381728650059e-01  -1.2000080405142710e-01  -1.2175646727835998e-01  -1.2353569255513107e-01  -1.2533641614764365e-01  -1.2717500270655088e-01  -1.2895939153883729e-01  -1.3039571189358440e-01  -1.3181052059135040e-01  -1.3332712629575214e-01  -1.3279842498768740e-01  -1.3263547708169621e-01  -1.3443859559460897e-01  -1.2566544183081291e-01  -1.2370767705264554e-01  -1.3803827640829394e-01  -6.9153356252092818e-02  1.7587097255865172e-02  4.5689687392053433e-03  -1.7080130766765421e-02  -4.2632234995312657e-02  -5.4590900576689028e-02  -5.9192818023521374e-02  -6.3498715456846433e-02  -6.8334677007238359e-02  -7.1625700051342639e-02  -7.4182916604717805e-02  -7.6769381553353694e-02  -7.8919800528310560e-02  -8.0828570180872861e-02  -8.2730610865983684e-02  -8.4520155710801681e-02  -8.6293072783051553e-02  -8.8117856863121513e-02  -8.9995071416251640e-02  -9.1945663159800364e-02  -9.3978017477276646e-02  -9.6077673836588814e-02  -9.8200832505924693e-02  -1.0036421874693485e-01  -1.0246391984472522e-01  -1.0414173584277404e-01  -1.0591650716053590e-01  -1.0700061752183840e-01  -1.0601346468757181e-01  -1.0768457613144146e-01  -1.0403180793634946e-01  -9.4460490383475176e-02  -1.0780887841794251e-01  -6.7131037696220586e-02  1.3924110698637190e-02  3.7634029279003823e-03  -4.5206695109931685e-03  -1.9432549173717176e-02  -2.6965707289929999e-02  -3.1304859463536762e-02  -3.5476843135483861e-02  -3.9413617084640570e-02  -4.2256557340821607e-02  -4.4695858718929303e-02  -4.6981625461544246e-02  -4.8920578684789676e-02  -5.0739887591881874e-02  -5.2512653165473364e-02  -5.4241573482644974e-02  -5.6027272418722983e-02  -5.7896947006297397e-02  -5.9882810011363773e-02  -6.2016125978034291e-02  -6.4304393344063446e-02  -6.6742199201766411e-02  -6.9305576652493622e-02  -7.1902606409581390e-02  -7.4539745167379892e-02  -7.7008822997433515e-02  -7.9111384290195402e-02  -8.1307920364197567e-02  -8.1452181872608817e-02  -8.2049325180537216e-02  -8.2453848079115072e-02  -7.2197589472737023e-02  -8.0095993560600931e-02  -5.9886057142957395e-02  9.7992391271342159e-03  1.9115876000782052e-03  7.3742919658902357e-03  2.4974678711616009e-03  -8.7120393377099962e-04  -4.7162398933149694e-03  -8.1328995091450185e-03  -1.1040997405725799e-02  -1.3386639482467311e-02  -1.5506552325105004e-02  -1.7400704526976341e-02  -1.9091024359089031e-02  -2.0712050038505660e-02  -2.2305984331464933e-02  -2.3934148458667689e-02  -2.5669025522210107e-02  -2.7552418814248351e-02  -2.9633694633557653e-02  -3.1941354448110963e-02  -3.4493543418149059e-02  -3.7283733510460812e-02  -4.0290888574959653e-02  -4.3484358816770069e-02  -4.6734870859879742e-02  -5.0040321553064968e-02  -5.3012552279000709e-02  -5.5954059106457787e-02  -5.8000334937402642e-02  -5.8512172562548828e-02  -6.1232286398039716e-02  -5.4125870226541452e-02  -5.7327115957531788e-02  -5.0078088331399921e-02  6.4395582775974144e-03  -6.5382159045026828e-04  1.8354936407878726e-02  2.3492714819580981e-02  2.4396635752550789e-02  2.1306990933249868e-02  1.8738010968772180e-02  1.6943364366758331e-02  1.5161814720313187e-02  1.3458965149333433e-02  1.2018542457602688e-02  1.0647215924635104e-02  9.2989657866738365e-03  7.9433335497468265e-03  6.4782206654968883e-03  4.8501704219264799e-03  2.9928891253609867e-03  8.5031938759342165e-04  -1.6167215599773993e-03  -4.4329852260096376e-03  -7.6106304749805776e-03  -1.1122036945206377e-02  -1.4939369069105563e-02  -1.8988502971173195e-02  -2.3155065855116341e-02  -2.7340745360790088e-02  -3.1229985149456262e-02  -3.5091450245498222e-02  -3.6930101049153161e-02  -4.0990545643748579e-02  -3.8198823402727101e-02  -3.9344107070489652e-02  -4.0397348388919015e-02  4.0151528477300200e-03  -3.2468964899693602e-03  2.7871706473771785e-02  4.4266961690101303e-02  4.9319818787999563e-02  4.7509507550412486e-02  4.5304498622183477e-02  4.4697436921111749e-02  4.3530067044228848e-02  4.2272479691569921e-02  4.1314018527404073e-02  4.0351732778988722e-02  3.9329173950869316e-02  3.8282755725634832e-02  3.7055256719728785e-02  3.5589127610835040e-02  3.3815969780060691e-02  3.1656583560420920e-02  2.9058934050155864e-02  2.5986337767373482e-02  2.2418348299738895e-02  1.8354227145661373e-02  1.3837474227519714e-02  8.9023178743163536e-03  3.6952102188953944e-03  -1.7689667085931048e-03  -7.0933565865174521e-03  -1.2583494800200479e-02  -1.6712388689103550e-02  -2.2024384628698643e-02  -2.3583079408584749e-02  -2.5039497704175632e-02  -3.1511909400802590e-02  2.2960154417492936e-03  -5.9119261329175568e-03  3.5210379410417970e-02  6.4787829112616838e-02  7.4329772710665404e-02  7.4430183250807025e-02  7.1996953005535630e-02  7.2257435846037499e-02  7.1900921931477707e-02  7.1026778723120007e-02  7.0538998158031399e-02  7.0077557587173572e-02  6.9458649155149280e-02  6.8775123845960101e-02  6.7888426101520460e-02  6.6661346434254906e-02  6.5032726345560801e-02  6.2911195458946967e-02  6.0222274085707267e-02  5.6901707900140208e-02  5.2936031745609617e-02  4.8301947240374864e-02  4.3010552862914025e-02  3.7126861328762362e-02  3.0707538204223894e-02  2.3858659456472382e-02  1.6784182320785337e-02  9.5787308236949063e-03  2.7221650525269107e-03  -4.2842452403727155e-03  -9.7517021571108236e-03  -1.3371443623910862e-02  -2.3836087592530208e-02  1.0990222570673167e-03  -8.1558356492344442e-03  3.9027045575738585e-02  8.3945580412110060e-02  9.9609873522516268e-02  1.0210996029059452e-01  9.9264896242203457e-02  9.9551712932361189e-02  1.0025486816522093e-01  9.9805181100471416e-02  9.9683834708517008e-02  9.9808242043044115e-02  9.9718432224644604e-02  9.9462366790573478e-02  9.8998659181214144e-02  9.8133047715058652e-02  9.6735951992773073e-02  9.4719586153690596e-02  9.1991334680476336e-02  8.8483546946985098e-02  8.4136309589098165e-02  7.8890711632905772e-02  7.2803643198153328e-02  6.5881340875952210e-02  5.8148471528657944e-02  4.9737050357158620e-02  4.0789469884199396e-02  3.1490892127309586e-02  2.1911516379426926e-02  1.2402906659309394e-02  3.5826671049257975e-03  -3.5706110874835569e-03  -1.7148125999148615e-02  2.2486498117102997e-04  -9.1756749764152126e-03  3.8055671373303498e-02  9.8817856097107470e-02  1.2446228075798239e-01  1.3044288323431330e-01  1.2764626384272815e-01  1.2677512457680820e-01  1.2836878485898220e-01  1.2874172076426665e-01  1.2884146113019312e-01  1.2952439731359625e-01  1.3016491333641958e-01  1.3048754459190093e-01  1.3051918966214518e-01  1.3012442700450336e-01  1.2910039411800076e-01  1.2729609891203167e-01  1.2460287947366620e-01  1.2092108475322562e-01  1.1617091623751176e-01  1.1035767973557495e-01  1.0346543989174518e-01  9.5410502012299517e-02  8.6278195390673829e-02  7.6173085337808089e-02  6.5207477853363505e-02  5.3541637750792369e-02  4.1062926321492305e-02  2.8524590087940994e-02  1.6582263872329462e-02  4.9576025890375108e-03  -1.1461830558994045e-02  -3.4363399362472518e-04  -7.9828748277918776e-03  3.0930670927672297e-02  1.0483071727448073e-01  1.4656946116315819e-01  1.5846066178231272e-01  1.5707125057015658e-01  1.5440812487409825e-01  1.5575307441307229e-01  1.5751001022080255e-01  1.5814353069776532e-01  1.5915138370267767e-01  1.6061153747775064e-01  1.6182785025525570e-01  1.6254291686238362e-01  1.6269264699391608e-01  1.6211925451622855e-01  1.6063356347750860e-01  1.5807543316398129e-01  1.5433400964503413e-01  1.4934065429282645e-01  1.4300640931945757e-01  1.3521394185489666e-01  1.2598736337368693e-01  1.1542608612629511e-01  1.0351023344383799e-01  9.0395373469398202e-02  7.6116005104985451e-02  6.0403933057786109e-02  4.4650496189702911e-02  2.9312517609446934e-02  1.2590255689701535e-02  -6.9182330230056063e-03  -6.8743505047739236e-04  -4.7622113534345981e-03  1.9181556451183666e-02  9.7145206026909431e-02  1.6075982406740105e-01  1.8479502573271375e-01  1.8708098319056379e-01  1.8330469676779043e-01  1.8272924548615435e-01  1.8537503273206737e-01  1.8755832397336553e-01  1.8911082481012056e-01  1.9113249251295533e-01  1.9339006585472318e-01  1.9522014035008459e-01  1.9626157979640604e-01  1.9634638977449939e-01  1.9530990310237942e-01  1.9299344948351446e-01  1.8924838778949660e-01  1.8393445839614878e-01  1.7695349446970390e-01  1.6830300833592204e-01  1.5799531272787207e-01  1.4593856682409570e-01  1.3213890167166115e-01  1.1679438450073294e-01  9.9536680017160317e-02  8.0329002657407819e-02  6.1300752857732496e-02  4.2110525604428378e-02  1.9388008929584498e-02  -4.2097157453906226e-03  -1.1724310120004369e-03  -1.1786517452681605e-03  3.9671062507153024e-03  7.4900185921110515e-02  1.5959417321033820e-01  2.0437081319909917e-01  2.1572860815337819e-01  2.1324004822406512e-01  2.1025953065394440e-01  2.1184411064154696e-01  2.1580211804563529e-01  2.1927286344901298e-01  2.2221373237379718e-01  2.2522875990752689e-01  2.2808435145507461e-01  2.3023338599887633e-01  2.3125199303461799e-01  2.30890717