<?xml version="1.0"?>
<VTKFile type="UnstructuredGrid"  version="0.1"  >
<UnstructuredGrid>
<Piece  NumberOfPoints="1089" NumberOfCells="1024">
<Points>
<DataArray  type="Float64"  NumberOfComponents="3"  format="ascii">0 0 0  0.03125 0 0  0.0625 0 0  0.09375 0 0  0.125 0 0  0.15625 0 0  0.1875 0 0  0.21875 0 0  0.25 0 0  0.28125 0 0  0.3125 0 0  0.34375 0 0  0.375 0 0  0.40625 0 0  0.4375 0 0  0.46875 0 0  0.5 0 0  0.53125 0 0  0.5625 0 0  0.59375 0 0  0.625 0 0  0.65625 0 0  0.6875 0 0  0.71875 0 0  0.75 0 0  0.78125 0 0  0.8125 0 0  0.84375 0 0  0.875 0 0  0.90625 0 0  0.9375 0 0  0.96875 0 0  1 0 0  0 0.03125 0  0.03125 0.03125 0  0.0625 0.03125 0  0.09375 0.03125 0  0.125 0.03125 0  0.15625 0.03125 0  0.1875 0.03125 0  0.21875 0.03125 0  0.25 0.03125 0  0.28125 0.03125 0  0.3125 0.03125 0  0.34375 0.03125 0  0.375 0.03125 0  0.40625 0.03125 0  0.4375 0.03125 0  0.46875 0.03125 0  0.5 0.03125 0  0.53125 0.03125 0  0.5625 0.03125 0  0.59375 0.03125 0  0.625 0.03125 0  0.65625 0.03125 0  0.6875 0.03125 0  0.71875 0.03125 0  0.75 0.03125 0  0.78125 0.03125 0  0.8125 0.03125 0  0.84375 0.03125 0  0.875 0.03125 0  0.90625 0.03125 0  0.9375 0.03125 0  0.96875 0.03125 0  1 0.03125 0  0 0.0625 0  0.03125 0.0625 0  0.0625 0.0625 0  0.09375 0.0625 0  0.125 0.0625 0  0.15625 0.0625 0  0.1875 0.0625 0  0.21875 0.0625 0  0.25 0.0625 0  0.28125 0.0625 0  0.3125 0.0625 0  0.34375 0.0625 0  0.375 0.0625 0  0.40625 0.0625 0  0.4375 0.0625 0  0.46875 0.0625 0  0.5 0.0625 0  0.53125 0.0625 0  0.5625 0.0625 0  0.59375 0.0625 0  0.625 0.0625 0  0.65625 0.0625 0  0.6875 0.0625 0  0.71875 0.0625 0  0.75 0.0625 0  0.78125 0.0625 0  0.8125 0.0625 0  0.84375 0.0625 0  0.875 0.0625 0  0.90625 0.0625 0  0.9375 0.0625 0  0.96875 0.0625 0  1 0.0625 0  0 0.09375 0  0.03125 0.09375 0  0.0625 0.09375 0  0.09375 0.09375 0  0.125 0.09375 0  0.15625 0.09375 0  0.1875 0.09375 0  0.21875 0.09375 0  0.25 0.09375 0  0.28125 0.09375 0  0.3125 0.09375 0  0.34375 0.09375 0  0.375 0.09375 0  0.40625 0.09375 0  0.4375 0.09375 0  0.46875 0.09375 0  0.5 0.09375 0  0.53125 0.09375 0  0.5625 0.09375 0  0.59375 0.09375 0  0.625 0.09375 0  0.65625 0.09375 0  0.6875 0.09375 0  0.71875 0.09375 0  0.75 0.09375 0  0.78125 0.09375 0  0.8125 0.09375 0  0.84375 0.09375 0  0.875 0.09375 0  0.90625 0.09375 0  0.9375 0.09375 0  0.96875 0.09375 0  1 0.09375 0  0 0.125 0  0.03125 0.125 0  0.0625 0.125 0  0.09375 0.125 0  0.125 0.125 0  0.15625 0.125 0  0.1875 0.125 0  0.21875 0.125 0  0.25 0.125 0  0.28125 0.125 0  0.3125 0.125 0  0.34375 0.125 0  0.375 0.125 0  0.40625 0.125 0  0.4375 0.125 0  0.46875 0.125 0  0.5 0.125 0  0.53125 0.125 0  0.5625 0.125 0  0.59375 0.125 0  0.625 0.125 0  0.65625 0.125 0  0.6875 0.125 0  0.71875 0.125 0  0.75 0.125 0  0.78125 0.125 0  0.8125 0.125 0  0.84375 0.125 0  0.875 0.125 0  0.90625 0.125 0  0.9375 0.125 0  0.96875 0.125 0  1 0.125 0  0 0.15625 0  0.03125 0.15625 0  0.0625 0.15625 0  0.09375 0.15625 0  0.125 0.15625 0  0.15625 0.15625 0  0.1875 0.15625 0  0.21875 0.15625 0  0.25 0.15625 0  0.28125 0.15625 0  0.3125 0.15625 0  0.34375 0.15625 0  0.375 0.15625 0  0.40625 0.15625 0  0.4375 0.15625 0  0.46875 0.15625 0  0.5 0.15625 0  0.53125 0.15625 0  0.5625 0.15625 0  0.59375 0.15625 0  0.625 0.15625 0  0.65625 0.15625 0  0.6875 0.15625 0  0.71875 0.15625 0  0.75 0.15625 0  0.78125 0.15625 0  0.8125 0.15625 0  0.84375 0.15625 0  0.875 0.15625 0  0.90625 0.15625 0  0.9375 0.15625 0  0.96875 0.15625 0  1 0.15625 0  0 0.1875 0  0.03125 0.1875 0  0.0625 0.1875 0  0.09375 0.1875 0  0.125 0.1875 0  0.15625 0.1875 0  0.1875 0.1875 0  0.21875 0.1875 0  0.25 0.1875 0  0.28125 0.1875 0  0.3125 0.1875 0  0.34375 0.1875 0  0.375 0.1875 0  0.40625 0.1875 0  0.4375 0.1875 0  0.46875 0.1875 0  0.5 0.1875 0  0.53125 0.1875 0  0.5625 0.1875 0  0.59375 0.1875 0  0.625 0.1875 0  0.65625 0.1875 0  0.6875 0.1875 0  0.71875 0.1875 0  0.75 0.1875 0  0.78125 0.1875 0  0.8125 0.1875 0  0.84375 0.1875 0  0.875 0.1875 0  0.90625 0.1875 0  0.9375 0.1875 0  0.96875 0.1875 0  1 0.1875 0  0 0.21875 0  0.03125 0.21875 0  0.0625 0.21875 0  0.09375 0.21875 0  0.125 0.21875 0  0.15625 0.21875 0  0.1875 0.21875 0  0.21875 0.21875 0  0.25 0.21875 0  0.28125 0.21875 0  0.3125 0.21875 0  0.34375 0.21875 0  0.375 0.21875 0  0.40625 0.21875 0  0.4375 0.21875 0  0.46875 0.21875 0  0.5 0.21875 0  0.53125 0.21875 0  0.5625 0.21875 0  0.59375 0.21875 0  0.625 0.21875 0  0.65625 0.21875 0  0.6875 0.21875 0  0.71875 0.21875 0  0.75 0.21875 0  0.78125 0.21875 0  0.8125 0.21875 0  0.84375 0.21875 0  0.875 0.21875 0  0.90625 0.21875 0  0.9375 0.21875 0  0.96875 0.21875 0  1 0.21875 0  0 0.25 0  0.03125 0.25 0  0.0625 0.25 0  0.09375 0.25 0  0.125 0.25 0  0.15625 0.25 0  0.1875 0.25 0  0.21875 0.25 0  0.25 0.25 0  0.28125 0.25 0  0.3125 0.25 0  0.34375 0.25 0  0.375 0.25 0  0.40625 0.25 0  0.4375 0.25 0  0.46875 0.25 0  0.5 0.25 0  0.53125 0.25 0  0.5625 0.25 0  0.59375 0.25 0  0.625 0.25 0  0.65625 0.25 0  0.6875 0.25 0  0.71875 0.25 0  0.75 0.25 0  0.78125 0.25 0  0.8125 0.25 0  0.84375 0.25 0  0.875 0.25 0  0.90625 0.25 0  0.9375 0.25 0  0.96875 0.25 0  1 0.25 0  0 0.28125 0  0.03125 0.28125 0  0.0625 0.28125 0  0.09375 0.28125 0  0.125 0.28125 0  0.15625 0.28125 0  0.1875 0.28125 0  0.21875 0.28125 0  0.25 0.28125 0  0.28125 0.28125 0  0.3125 0.28125 0  0.34375 0.28125 0  0.375 0.28125 0  0.40625 0.28125 0  0.4375 0.28125 0  0.46875 0.28125 0  0.5 0.28125 0  0.53125 0.28125 0  0.5625 0.28125 0  0.59375 0.28125 0  0.625 0.28125 0  0.65625 0.28125 0  0.6875 0.28125 0  0.71875 0.28125 0  0.75 0.28125 0  0.78125 0.28125 0  0.8125 0.28125 0  0.84375 0.28125 0  0.875 0.28125 0  0.90625 0.28125 0  0.9375 0.28125 0  0.96875 0.28125 0  1 0.28125 0  0 0.3125 0  0.03125 0.3125 0  0.0625 0.3125 0  0.09375 0.3125 0  0.125 0.3125 0  0.15625 0.3125 0  0.1875 0.3125 0  0.21875 0.3125 0  0.25 0.3125 0  0.28125 0.3125 0  0.3125 0.3125 0  0.34375 0.3125 0  0.375 0.3125 0  0.40625 0.3125 0  0.4375 0.3125 0  0.46875 0.3125 0  0.5 0.3125 0  0.53125 0.3125 0  0.5625 0.3125 0  0.59375 0.3125 0  0.625 0.3125 0  0.65625 0.3125 0  0.6875 0.3125 0  0.71875 0.3125 0  0.75 0.3125 0  0.78125 0.3125 0  0.8125 0.3125 0  0.84375 0.3125 0  0.875 0.3125 0  0.90625 0.3125 0  0.9375 0.3125 0  0.96875 0.3125 0  1 0.3125 0  0 0.34375 0  0.03125 0.34375 0  0.0625 0.34375 0  0.09375 0.34375 0  0.125 0.34375 0  0.15625 0.34375 0  0.1875 0.34375 0  0.21875 0.34375 0  0.25 0.34375 0  0.28125 0.34375 0  0.3125 0.34375 0  0.34375 0.34375 0  0.375 0.34375 0  0.40625 0.34375 0  0.4375 0.34375 0  0.46875 0.34375 0  0.5 0.34375 0  0.53125 0.34375 0  0.5625 0.34375 0  0.59375 0.34375 0  0.625 0.34375 0  0.65625 0.34375 0  0.6875 0.34375 0  0.71875 0.34375 0  0.75 0.34375 0  0.78125 0.34375 0  0.8125 0.34375 0  0.84375 0.34375 0  0.875 0.34375 0  0.90625 0.34375 0  0.9375 0.34375 0  0.96875 0.34375 0  1 0.34375 0  0 0.375 0  0.03125 0.375 0  0.0625 0.375 0  0.09375 0.375 0  0.125 0.375 0  0.15625 0.375 0  0.1875 0.375 0  0.21875 0.375 0  0.25 0.375 0  0.28125 0.375 0  0.3125 0.375 0  0.34375 0.375 0  0.375 0.375 0  0.40625 0.375 0  0.4375 0.375 0  0.46875 0.375 0  0.5 0.375 0  0.53125 0.375 0  0.5625 0.375 0  0.59375 0.375 0  0.625 0.375 0  0.65625 0.375 0  0.6875 0.375 0  0.71875 0.375 0  0.75 0.375 0  0.78125 0.375 0  0.8125 0.375 0  0.84375 0.375 0  0.875 0.375 0  0.90625 0.375 0  0.9375 0.375 0  0.96875 0.375 0  1 0.375 0  0 0.40625 0  0.03125 0.40625 0  0.0625 0.40625 0  0.09375 0.40625 0  0.125 0.40625 0  0.15625 0.40625 0  0.1875 0.40625 0  0.21875 0.40625 0  0.25 0.40625 0  0.28125 0.40625 0  0.3125 0.40625 0  0.34375 0.40625 0  0.375 0.40625 0  0.40625 0.40625 0  0.4375 0.40625 0  0.46875 0.40625 0  0.5 0.40625 0  0.53125 0.40625 0  0.5625 0.40625 0  0.59375 0.40625 0  0.625 0.40625 0  0.65625 0.40625 0  0.6875 0.40625 0  0.71875 0.40625 0  0.75 0.40625 0  0.78125 0.40625 0  0.8125 0.40625 0  0.84375 0.40625 0  0.875 0.40625 0  0.90625 0.40625 0  0.9375 0.40625 0  0.96875 0.40625 0  1 0.40625 0  0 0.4375 0  0.03125 0.4375 0  0.0625 0.4375 0  0.09375 0.4375 0  0.125 0.4375 0  0.15625 0.4375 0  0.1875 0.4375 0  0.21875 0.4375 0  0.25 0.4375 0  0.28125 0.4375 0  0.3125 0.4375 0  0.34375 0.4375 0  0.375 0.4375 0  0.40625 0.4375 0  0.4375 0.4375 0  0.46875 0.4375 0  0.5 0.4375 0  0.53125 0.4375 0  0.5625 0.4375 0  0.59375 0.4375 0  0.625 0.4375 0  0.65625 0.4375 0  0.6875 0.4375 0  0.71875 0.4375 0  0.75 0.4375 0  0.78125 0.4375 0  0.8125 0.4375 0  0.84375 0.4375 0  0.875 0.4375 0  0.90625 0.4375 0  0.9375 0.4375 0  0.96875 0.4375 0  1 0.4375 0  0 0.46875 0  0.03125 0.46875 0  0.0625 0.46875 0  0.09375 0.46875 0  0.125 0.46875 0  0.15625 0.46875 0  0.1875 0.46875 0  0.21875 0.46875 0  0.25 0.46875 0  0.28125 0.46875 0  0.3125 0.46875 0  0.34375 0.46875 0  0.375 0.46875 0  0.40625 0.46875 0  0.4375 0.46875 0  0.46875 0.46875 0  0.5 0.46875 0  0.53125 0.46875 0  0.5625 0.46875 0  0.59375 0.46875 0  0.625 0.46875 0  0.65625 0.46875 0  0.6875 0.46875 0  0.71875 0.46875 0  0.75 0.46875 0  0.78125 0.46875 0  0.8125 0.46875 0  0.84375 0.46875 0  0.875 0.46875 0  0.90625 0.46875 0  0.9375 0.46875 0  0.96875 0.46875 0  1 0.46875 0  0 0.5 0  0.03125 0.5 0  0.0625 0.5 0  0.09375 0.5 0  0.125 0.5 0  0.15625 0.5 0  0.1875 0.5 0  0.21875 0.5 0  0.25 0.5 0  0.28125 0.5 0  0.3125 0.5 0  0.34375 0.5 0  0.375 0.5 0  0.40625 0.5 0  0.4375 0.5 0  0.46875 0.5 0  0.5 0.5 0  0.53125 0.5 0  0.5625 0.5 0  0.59375 0.5 0  0.625 0.5 0  0.65625 0.5 0  0.6875 0.5 0  0.71875 0.5 0  0.75 0.5 0  0.78125 0.5 0  0.8125 0.5 0  0.84375 0.5 0  0.875 0.5 0  0.90625 0.5 0  0.9375 0.5 0  0.96875 0.5 0  1 0.5 0  0 0.53125 0  0.03125 0.53125 0  0.0625 0.53125 0  0.09375 0.53125 0  0.125 0.53125 0  0.15625 0.53125 0  0.1875 0.53125 0  0.21875 0.53125 0  0.25 0.53125 0  0.28125 0.53125 0  0.3125 0.53125 0  0.34375 0.53125 0  0.375 0.53125 0  0.40625 0.53125 0  0.4375 0.53125 0  0.46875 0.53125 0  0.5 0.53125 0  0.53125 0.53125 0  0.5625 0.53125 0  0.59375 0.53125 0  0.625 0.53125 0  0.65625 0.53125 0  0.6875 0.53125 0  0.71875 0.53125 0  0.75 0.53125 0  0.78125 0.531
[...]
<PointData  Scalars="v_sol"> 
<DataArray  type="Float64"  Name="v_sol"  format="ascii">-2.2741071900738447e-05  2.8947629745706239e-04  5.1270125920754525e-04  4.6069956023897410e-04  2.1782235298675232e-04  1.1788813558412931e-04  2.0508637615704683e-04  3.3204998597711593e-04  4.9676378644545715e-04  -1.3258268638552970e-03  -5.4046795043349192e-03  -8.7793810142187505e-03  -9.4240118906586800e-03  -7.5243000013886507e-03  -4.4183590590512259e-03  -1.1294529557644053e-03  1.8768860520233083e-03  3.8502371061862545e-03  4.7400493984799414e-03  5.4335744422900692e-03  6.0885198480791812e-03  6.7732869338429395e-03  6.9087336328862315e-03  6.1919737731265150e-03  3.9923407992082192e-03  2.8779337990687260e-05  -3.1221369310671146e-03  -3.4716933762400162e-03  -2.3453595659629349e-03  -1.1230482110674985e-03  -3.8657594012957895e-04  -7.9904690984783849e-05  5.8462925012701111e-05  2.9655600672005183e-04  -1.4843906405758321e-03  -2.8692665552558778e-03  -2.3992067782143130e-03  -9.0269604918837151e-04  -8.9259355315461685e-04  -9.1227815533371061e-04  -5.7208683263259923e-04  -2.8649381624930373e-03  4.8524561969606004e-03  2.1445072005252166e-02  3.3860919266685226e-02  4.0130421539272404e-02  3.9194871593701754e-02  3.2591925396362791e-02  2.1776888052130405e-02  7.9986092959813768e-03  -7.8265221997878380e-03  -2.4796028386689890e-02  -4.1065901862242883e-02  -5.2894136340665539e-02  -5.5293053528391582e-02  -4.4722674541630356e-02  -2.4014614704907292e-02  -2.8255773203770202e-03  1.1054580733137573e-02  1.8291595308593311e-02  1.7531031098775504e-02  1.0771233255663419e-02  4.9050525036175513e-03  1.7492688020647467e-03  1.8684587276757026e-04  -3.0616662459921276e-04  3.5564535585275799e-04  -6.4125361034912919e-03  -9.5767577141346542e-03  -6.1698526355692335e-03  -1.8077078271067240e-03  8.0056342354798554e-04  1.0512496808795422e-03  1.3589230685411392e-02  4.5683571684028340e-02  8.0832483263429775e-02  1.0491325543721666e-01  1.1088326332794718e-01  1.0109960252684226e-01  8.1738631971457365e-02  5.8035753760154969e-02  3.2693906765926241e-02  6.2696472534005286e-03  -2.1944114781284441e-02  -5.2305137493333563e-02  -8.3768013977121775e-02  -1.1279021198906974e-01  -1.3175554743837881e-01  -1.3038319636268061e-01  -1.0262251986836933e-01  -5.6600619441179230e-02  -1.4291651444621000e-02  1.0207838825558323e-02  2.4249082141186908e-02  2.7073319053707103e-02  1.8331868988975257e-02  9.4282810532182529e-03  3.4591561477495879e-03  -1.8132318246540699e-04  -7.1790826287995873e-05  -1.5426597620849839e-02  -1.6569552551453971e-02  -5.2041731504386766e-03  3.2049285801703160e-03  1.0469589064458945e-02  4.1184780111378848e-02  9.6129717732338707e-02  1.4675658943559522e-01  1.7269049429415170e-01  1.7160338727119551e-01  1.5244344008526228e-01  1.2476065035632754e-01  9.4778919794301322e-02  6.4809034214076092e-02  3.5144664189219063e-02  5.1306428307077746e-03  -2.5950712420109556e-02  -5.9308319050160263e-02  -9.5989794671969345e-02  -1.3549864474891735e-01  -1.7379156268371157e-01  -2.0042798610877055e-01  -1.9938365307933431e-01  -1.5907592635962275e-01  -8.9147801027352230e-02  -2.4881320107529938e-02  6.6565319700826455e-03  2.1544587582741144e-02  2.5898601585062929e-02  1.7626722607469138e-02  9.6339634107184061e-03  4.4938775921119102e-04  -2.2658421601275702e-03  -2.8712233486446973e-02  -1.7556273186084912e-02  3.8871418332570070e-03  2.0712795568649949e-02  6.6086748120166752e-02  1.4053320237901931e-01  2.0270175917194341e-01  2.2791462545599908e-01  2.1942090727126706e-01  1.9223513464374276e-01  1.5869325091830785e-01  1.2483490425056026e-01  9.2443944002418857e-02  6.1666506580977193e-02  3.2017777557803946e-02  2.7390120921469471e-03  -2.7183421630712499e-02  -5.8484675965487565e-02  -9.1882452931840844e-02  -1.2862281855250751e-01  -1.6997725651309767e-01  -2.1446825068423031e-01  -2.5173414635731611e-01  -2.5928300808077581e-01  -2.1431619522321751e-01  -1.2146037177518064e-01  -3.0331162473876769e-02  9.4751911504953618e-03  2.0736293788471638e-02  2.3300171290629321e-02  1.5008388548289824e-02  1.4748666372866822e-03  -8.6155020634637383e-03  -4.0521183547693594e-02  -7.7473829735735435e-03  2.5744651387117141e-02  7.9791025048315006e-02  1.6976833308653938e-01  2.4487430429983217e-01  2.7216099514803910e-01  2.5836355900620728e-01  2.2494249659484977e-01  1.8770509608718314e-01  1.5272317407194289e-01  1.2074264830614266e-01  9.0708666528534029e-02  6.1366212490142943e-02  3.1806144021130030e-02  1.5938145912319335e-03  -2.9340709934890522e-02  -6.0907773930834581e-02  -9.2894194713863856e-02  -1.2502978902766057e-01  -1.5803781553233778e-01  -1.9527672723686346e-01  -2.4082590623610006e-01  -2.8819395224443206e-01  -3.0799384724477880e-01  -2.6104209630256769e-01  -1.4354571166361038e-01  -2.6071565129392606e-02  1.6605610706072350e-02  2.1212350428225769e-02  2.0995857416814569e-02  1.2629350686790444e-03  -1.7628246833182998e-02  -4.3342682125907285e-02  1.5127258826068369e-02  7.8998986741846453e-02  1.7837312642988340e-01  2.7134582787688816e-01  3.0782632565012125e-01  2.9319037558894251e-01  2.5593558235813979e-01  2.1715321482884614e-01  1.8321844477902466e-01  1.5307834868787823e-01  1.2399570267319301e-01  9.4340040518943222e-02  6.3859629405880941e-02  3.2858598340875213e-02  1.5204660902989602e-03  -3.0248319348231276e-02  -6.2681113006743991e-02  -9.5814404201420691e-02  -1.2915169789011491e-01  -1.6134783642218692e-01  -1.9118957366804587e-01  -2.2212454814816354e-01  -2.6465032709057390e-01  -3.1924593701945164e-01  -3.4815556479900472e-01  -2.9194711010349289e-01  -1.4172186057933223e-01  -8.1759891217404717e-03  2.5351986561492627e-02  2.0652213338253796e-02  3.5699164940842260e-03  -2.5875312739899826e-02  -3.1175188634317549e-02  5.9967563099955601e-02  1.6403524283951401e-01  2.7716260879931598e-01  3.3467628337851180e-01  3.2656744446012326e-01  2.8804833518786732e-01  2.4822399272397097e-01  2.1554860597000516e-01  1.8681213426736315e-01  1.5774934891591202e-01  1.2702786972571375e-01  9.5562900114182017e-02  6.4169542447783473e-02  3.2950294863233434e-02  1.6290161454444564e-03  -3.0027624222449974e-02  -6.2138521593306566e-02  -9.4850195668227555e-02  -1.2842060692349419e-01  -1.6287188208075662e-01  -1.9664756815035733e-01  -2.2603127900734241e-01  -2.5221141743116110e-01  -2.9164652612174830e-01  -3.5230978658948270e-01  -3.8197071591062159e-01  -2.9847094026073390e-01  -1.0454222730542853e-01  1.7901699654744894e-02  2.5852010311930219e-02  4.7344867332463495e-03  -2.9267691626718623e-02  1.8053621296133528e-03  1.2814383257749298e-01  2.5556396042092866e-01  3.4641629296969745e-01  3.5815624516233202e-01  3.2218133795850457e-01  2.8069237488077586e-01  2.4812454596353567e-01  2.2027764571088487e-01  1.9094650138623775e-01  1.5931002673428812e-01  1.2737759859661421e-01  9.6051117104750075e-02  6.4950468819880883e-02  3.3675818936158487e-02  2.0976740670199524e-03  -2.9796770436039476e-02  -6.1989727838824449e-02  -9.4386611686141555e-02  -1.2691754535811023e-01  -1.5993778360147193e-01  -1.9447997849021470e-01  -2.2988979672351700e-01  -2.6013135334992593e-01  -2.8339908450421986e-01  -3.2338693230540372e-01  -3.9078268956882783e-01  -4.0484944358127306e-01  -2.6323213780965077e-01  -3.5298326304835273e-02  3.9763353348915280e-02  -4.8442587857907265e-03  -2.2416129705768673e-02  5.5679684614527193e-02  2.0630633551940905e-01  3.3061712097195500e-01  3.8179343892404582e-01  3.5868873044114374e-01  3.1494793126808590e-01  2.8048729224352459e-01  2.5306721010798550e-01  2.2405808157858856e-01  1.9196549618461106e-01  1.5993049671569740e-01  1.2885570939883773e-01  9.7834660533295439e-02  6.6471020499703160e-02  3.4835402287787018e-02  2.9784258003901303e-03  -2.9115591186498722e-02  -6.1499012660933473e-02  -9.4192277889077816e-02  -1.2703787274010578e-01  -1.5961241958292199e-01  -1.9196118298661771e-01  -2.2610937488087837e-01  -2.6271835554246897e-01  -2.9299764615067364e-01  -3.1430381409460212e-01  -3.6225525864402208e-01  -4.3331560305272604e-01  -3.9826299199230769e-01  -1.6166248063444402e-01  3.2935019190576315e-02  9.5997812278721863e-03  -4.1967691671300931e-03  1.2266605171999702e-01  2.7915665271218415e-01  3.8182371631716117e-01  3.9407815764889503e-01  3.5321626231559816e-01  3.1337478457134282e-01  2.8517911543493957e-01  2.5726062564456775e-01  2.2532445944118415e-01  1.9299432373333020e-01  1.6204249064029988e-01  1.3098034939892220e-01  9.9422584484515825e-02  6.7708301770058016e-02  3.5926678639308041e-02  4.0161165388746716e-03  -2.8102365639686232e-02  -6.0462439727332604e-02  -9.3098291060806013e-02  -1.2610989384794299e-01  -1.5947328633701041e-01  -1.9243771374757637e-01  -2.2447991767754025e-01  -2.5877159910370301e-01  -2.9654439338191974e-01  -3.2415606049989415e-01  -3.4651427639557664e-01  -4.1272920299554261e-01  -4.6618280372747539e-01  -3.1707354524359316e-01  -1.5078200745450323e-02  3.6283407412608888e-02  2.0727608073097748e-02  1.9199486355670597e-01  3.3846584951068742e-01  4.1313470981213563e-01  3.9608808204848883e-01  3.5046103619590152e-01  3.1690538702204574e-01  2.9029814448254215e-01  2.5945672303785544e-01  2.2661193514581790e-01  1.9535557560691241e-01  1.6435457908647697e-01  1.3261576543747805e-01  1.0085103077011390e-01  6.9131655188665639e-02  3.7310442813996134e-02  5.3029814238892362e-03  -2.6908525841002784e-02  -5.9339847347366081e-02  -9.1986276566242989e-02  -1.2482853576983212e-01  -1.5805113048517211e-01  -1.9192301677401571e-01  -2.2533049828346222e-01  -2.5733110090606875e-01  -2.9314145984675483e-01  -3.3138202918933690e-01  -3.5251467941733422e-01  -3.8825663830390950e-01  -4.7413981151042583e-01  -4.3980914690218020e-01  -1.1158676413218684e-01  5.5653792203494770e-02  4.4998519492469899e-02  2.5506752375352354e-01  3.8295430670478681e-01  4.3181124011925315e-01  3.9610179534049678e-01  3.5199792910598698e-01  3.2237660520298100e-01  2.9415153946170697e-01  2.6119604843588845e-01  2.2893986802015265e-01  1.9793594878573295e-01  1.6619789191293324e-01  1.3426328678264465e-01  1.0257780856908580e-01  7.0788284792501710e-02  3.8860942835639824e-02  6.7867928958691469e-03  -2.5458721562125079e-02  -5.7927762604868920e-02  -9.0662522321162120e-02  -1.2366211772026132e-01  -1.5680569188809668e-01  -1.9034968058775620e-01  -2.2487439087167352e-01  -2.5848592622480626e-01  -2.9097203003530137e-01  -3.3041453450709490e-01  -3.6425398720579100e-01  -3.8200986574520085e-01  -4.5352140979575967e-01  -5.1165837651940305e-01  -2.3854912755691021e-01  7.0198145366561271e-02  6.2280341086387137e-02  3.0711208495085507e-01  4.1463629596851342e-01  4.4376988365962550e-01  3.9738549457156064e-01  3.5625875793043388e-01  3.2771914305601169e-01  2.9713839483930327e-01  2.6341189758793310e-01  2.3167493488150331e-01  2.0015371730078252e-01  1.6799100931827529e-01  1.3614917564597565e-01  1.0438190858593223e-01  7.2469098836109205e-02  4.0511142692232806e-02  8.4405510001096164e-03  -2.3796468928440822e-02  -5.6253047479195142e-02  -8.8969009242080330e-02  -1.2202653871673208e-01  -1.5546372764325334e-01  -1.8903908134337810e-01  -2.2324280939090191e-01  -2.5863626738044354e-01  -2.9189541248735695e-01  -3.2730690888989339e-01  -3.7007046429099205e-01  -3.9088877307800468e-01  -4.3331891702316683e-01  -5.3827623519792889e-01  -3.6508402559915154e-01  6.7848050649525052e-02  6.9367978001697278e-02  3.4595822252439856e-01  4.3631387116214815e-01  4.5226315471269568e-01  4.0026664914902488e-01  3.6137808474895039e-01  3.3228364999603849e-01  2.9985450742196712e-01  2.6597695250599346e-01  2.3424906873832871e-01  2.0215242735533351e-01  1.6989371713045257e-01  1.3804813016667222e-01  1.0614403423085177e-01  7.4224275658738487e-02  4.2305397761434972e-02  1.0272161262810749e-02  -2.1915989244860476e-02  -5.4325662934498753e-02  -8.7020465115867057e-02  -1.2004093985207477e-01  -1.5351266196441621e-01  -1.8749744237747490e-01  -2.2165215367735691e-01  -2.5716065405654048e-01  -2.9301995297841477e-01  -3.2631733093622389e-01  -3.6968998413682663e-01  -4.0366292295325124e-01  -4.2468626846582902e-01  -5.3853454991931027e-01  -4.7062759450930286e-01  4.6792559194799466e-02  6.5511707366321795e-02  3.7109141092578424e-01  4.5002833812955439e-01  4.5866682866984548e-01  4.0400555675570443e-01  3.6612019807796015e-01  3.3604085359977609e-01  3.0244787342706630e-01  2.6850147290955823e-01  2.3651558696140962e-01  2.0404844318372165e-01  1.7176400418139229e-01  1.3984401089529763e-01  1.0789756400654525e-01  7.6042727337585256e-02  4.4190942365595370e-02  1.2255293892578404e-02  -1.9815244307020932e-02  -5.2107805323628950e-02  -8.4699913603287130e-02  -1.1769533172706663e-01  -1.5112415014758629e-01  -1.8520574508340476e-01  -2.1983978901131784e-01  -2.5501170205111573e-01  -2.9245837327412999e-01  -3.2707464620126353e-01  -3.6678107003101346e-01  -4.1315213966486669e-01  -4.2655188946728079e-01  -5.2733272177921575e-01  -5.4956451293907438e-01  1.2396151220369512e-02  5.2913171960984794e-02  3.8162296557253178e-01  4.5735267567375049e-01  4.6306238128427335e-01  4.0791400950209145e-01  3.6986123598591286e-01  3.3903501054921820e-01  3.0480033500832782e-01  2.7073011941086528e-01  2.3845622676969727e-01  2.0579379994148272e-01  1.7347434853259083e-01  1.4151456768737158e-01  1.0961190773391466e-01  7.7859951373414324e-02  4.6141349584891626e-02  1.4381654484767364e-02  -1.7494134889023585e-02  -4.9591618989417378e-02  -8.2002693865983509e-02  -1.1483256319624936e-01  -1.4822955002246802e-01  -1.8222107592341202e-01  -2.1717362119743003e-01  -2.5252581115721634e-01  -2.9004033457500950e-01  -3.2761282054149032e-01  -3.6374859036613444e-01  -4.1719308202714211e-01  -4.3371415804614555e-01  -5.1335725795798259e-01  -6.0454849639996211e-01  -2.7566631839029746e-02  3.5248214180569462e-02  3.7616148428966101e-01  4.5932085775291814e-01  4.6492602890297646e-01  4.1186908999251554e-01  3.7220742334423407e-01  3.4131520110965435e-01  3.0675116962701116e-01  2.7254910186910264e-01  2.4002341070079988e-01  2.0730745947149981e-01  1.7494680204037677e-01  1.4301813460987986e-01  1.1122222035876894e-01  7.9631149228586592e-02  4.8128255176046110e-02  1.6629132947129453e-02  -1.4962212785890400e-02  -4.6751648001427046e-02  -7.8881578560315788e-02  -1.1144726089573662e-01  -1.4463471979369427e-01  -1.7855278667898430e-01  -2.1339672351603370e-01  -2.4928436287460137e-01  -2.8625362648255609e-01  -3.2640677314905114e-01  -3.6086607683992272e-01  -4.1645259762846198e-01  -4.4166505017302204e-01  -4.9940462169124572e-01  -6.4097690223912984e-01  -6.7388174401625395e-02  1.4942826287283804e-02  3.5428835366756445e-01  4.5572017093254602e-01  4.6405599110887397e-01  4.1567757227585300e-01  3.7340408635797323e-01  3.4267901470739198e-01  3.0830123356367062e-01  2.7388465987666760e-01  2.4116501430998602e-01  2.0850669564015761e-01  1.7612606554864368e-01  1.4428159911959668e-01  1.1266850113984367e-01  8.1302879439280662e-02  5.0108081995263398e-02  1.8968443919941326e-02  -1.2223472938072097e-02  -4.3598865045619564e-02  -7.5290454419051508e-02  -1.0748203755849220e-01  -1.4026601919186610e-01  -1.7401431255126371e-01  -2.0851537759055350e-01  -2.4475979125916447e-01  -2.8126765396885761e-01  -3.2284142921423720e-01  -3.5737235114802507e-01  -4.1203861663187175e-01  -4.4748293500648151e-01  -4.8594355018459051e-01  -6.6357251069980938e-01  -1.0388079867768381e-01  -5.0511089293671721e-03  3.1570169962549255e-01  4.4523777891074162e-01  4.6048922187619817e-01  4.1910461469265148e-01  3.7412739324217809e-01  3.4288355200699083e-01  3.0945996789165625e-01  2.7474945589147370e-01  2.4182362223981799e-01  2.0929971421801996e-01  1.7696658253353767e-01  1.4521875410807436e-01  1.1387341218213812e-01  8.2818698107087751e-02  5.2020687732402385e-02  2.1354055633733736e-02  -9.3072030764141771e-03  -4.0117910749476050e-02  -7.1230436024993196e-02  -1.0285785746533986e-01  -1.3509140406370307e-01  -1.6841753684947849e-01  -2.0248340271495496e-01  -2.3860973541473018e-01  -2.7495235479116292e-01  -3.1676200024536394e-01  -3.5229186485058422e-01  -4.0478761469277319e-01  -4.4971926131119005e-01  -4.7211543928802413e-01  -6.7599559305857371e-01  -1.3572808366221487e-01  -2.1057986569885757e-02  2.6086370569831219e-01  4.2539260508951060e-01  4.5396788363644575e-01  4.2172860922832101e-01  3.7534381209921341e-01  3.4195886426746958e-01  3.1001134953039133e-01  2.7530195932912072e-01  2.4195043954644407e-01  2.0957225739357854e-01  1.7739847953847571e-01  1.4576378626199435e-01  1.1472098377932470e-01  8.4096477497592165e-02  5.3805037739594816e-02  2.3735503909971780e-02  -6.2453765013188289e-03  -3.6336382305644989e-02  -6.6687862448760765e-02  -9.7531432332338283e-02  -1.2905042876807393e-01  -1.6166274590183369e-01  -1.9514048104185280e-01  -2.3071524231942125e-01  -2.6694401195275447e-01  -3.0819044176131150e-01  -3.4484558896461848e-01  -3.9498976389799778e-01  -4.4773875139648783e-01  -4.5700665742521113e-01  -6.8073869985077773e-01  -1.6251778878641246e-01  -2.9979815090865863e-02  1.9314601654872340e-01  3.9186383405240693e-01  4.4350869883041477e-01  4.2296263981285154e-01  3.7771361849126317e-01  3.4060227714312830e-01  3.0948152812750784e-01  2.7561465637110905e-01  2.4163958355501156e-01  2.0917485301599784e-01  1.7727865026302594e-01  1.4585126581539190e-01  1.1511682401152491e-01  8.5003720946651221e-02  5.5359193225837856e-02  2.6039341460238195e-02  -3.1035859279035976e-03  -3.2278785685282196e-02  -6.1639122373540182e-02  -9.1517970101924626e-02  -1.2207797686520558e-01  -1.5367747119413280e-01  -1.8630880570156511e-01  -2.2102925540681426e-01  -2.5686503752879919e-01  -2.9714117099246917e-01  -3.3437607347375459e-01  -3.8271036601663955e-01  -4.4131189955656558e-01  -4.3954544598424050e-01  -6.7966309617993104e-01  -1.8424146227612589e-01  -3.0767519090014447e-02  1.2044235857170885e-01  3.3982704901902366e-01  4.2569613723393085e-01  4.2169261077883963e-01  3.8124423424501747e-01  3.4018773817640735e-01  3.0764654245486039e-01  2.7526214541718919e-01  2.4111786644122696e-01  2.0808066438305439e-01  1.7634453854539067e-01  1.4530580970725610e-01  1.1498219441538303e-01  8.5437859877514274e-02  5.6561622192085589e-02  2.8164179444480443e-02  6.2614691094090979e-05  -2.7971738782324108e-02  -5.6165462334586129e-02  -8.4834451088633064e-02  -1.1408505485909509e-01  -1.4440502566482938e-01  -1.7590605118970620e-01  -2.0942021638293404e-01  -2.4451410614275276e-01  -2.8337257226749057e-01  -3.2051143668466076e-01  -3.6782094613383748e-01  -4.3014348777669453e-01  -4.1886233341436596e-01  -6.7400809081088120e-01  -2.0130286503636072e-01  -2.5128215602899188e-02  5.5041610429843700e-02  2.6659949303939118e-01  3.9403068525778429e-01  4.1565741711004095e-01  3.8469677352527332e-01  3.4197929263327992e-01  3.0545442169940579e-01  2.7335492886030860e-01  2.4011276145534075e-01  2.0655411562939846e-01  1.7446844567734371e-01  1.4376770262754243e-01  1.1406676136274300e-01  8.5270234913499707e-02  5.7306509471402582e-02  3.0000155692853785e-02  3.1363968853309102e-03  -2.3558653803656120e-02  -5.0296832911472363e-02  -7.7388899121415958e-02  -1.0506675663903468e-01  -1.3387464524254797e-01  -1.6382614760047925e-01  -1.9581219364223534e-01  -2.2971226153426277e-01  -2.6649772494832730e-01  -3.0308991496965443e-01  -3.5009015163186974e-01  -4.1382535341678456e-01  -3.9376045653320757e-01  -6.6444526347205624e-01  -2.1537668600820112e-01  -1.5263942552075055e-02  8.4228487063711631e-03  1.7742565942829699e-01  3.3990537900685691e-01  3.9914553832912208e-01  3.8583520779218944e-01  3.4577726094779698e-01  3.0491968109935502e-01  2.7003844350151879e-01  2.3739235618655138e-01  2.0432386410932973e-01  1.7189806389636464e-01  1.4114786118960623e-01  1.1201129153817697e-01  8.4163190413228256e-02  5.7367595374430279e-02  3.1404052666741025e-02  6.0388730569323609e-03  -1.9000621700141954e-02  -4.3989173017106920e-02  -6.9298492929933730e-02  -9.5163438707413173e-02  -