<?xml version="1.0"?>
<VTKFile type="UnstructuredGrid"  version="0.1"  >
<UnstructuredGrid>
<Piece  NumberOfPoints="1089" NumberOfCells="1024">
<Points>
<DataArray  type="Float64"  NumberOfComponents="3"  format="ascii">0 0 0  0.03125 0 0  0.0625 0 0  0.09375 0 0  0.125 0 0  0.15625 0 0  0.1875 0 0  0.21875 0 0  0.25 0 0  0.28125 0 0  0.3125 0 0  0.34375 0 0  0.375 0 0  0.40625 0 0  0.4375 0 0  0.46875 0 0  0.5 0 0  0.53125 0 0  0.5625 0 0  0.59375 0 0  0.625 0 0  0.65625 0 0  0.6875 0 0  0.71875 0 0  0.75 0 0  0.78125 0 0  0.8125 0 0  0.84375 0 0  0.875 0 0  0.90625 0 0  0.9375 0 0  0.96875 0 0  1 0 0  0 0.03125 0  0.03125 0.03125 0  0.0625 0.03125 0  0.09375 0.03125 0  0.125 0.03125 0  0.15625 0.03125 0  0.1875 0.03125 0  0.21875 0.03125 0  0.25 0.03125 0  0.28125 0.03125 0  0.3125 0.03125 0  0.34375 0.03125 0  0.375 0.03125 0  0.40625 0.03125 0  0.4375 0.03125 0  0.46875 0.03125 0  0.5 0.03125 0  0.53125 0.03125 0  0.5625 0.03125 0  0.59375 0.03125 0  0.625 0.03125 0  0.65625 0.03125 0  0.6875 0.03125 0  0.71875 0.03125 0  0.75 0.03125 0  0.78125 0.03125 0  0.8125 0.03125 0  0.84375 0.03125 0  0.875 0.03125 0  0.90625 0.03125 0  0.9375 0.03125 0  0.96875 0.03125 0  1 0.03125 0  0 0.0625 0  0.03125 0.0625 0  0.0625 0.0625 0  0.09375 0.0625 0  0.125 0.0625 0  0.15625 0.0625 0  0.1875 0.0625 0  0.21875 0.0625 0  0.25 0.0625 0  0.28125 0.0625 0  0.3125 0.0625 0  0.34375 0.0625 0  0.375 0.0625 0  0.40625 0.0625 0  0.4375 0.0625 0  0.46875 0.0625 0  0.5 0.0625 0  0.53125 0.0625 0  0.5625 0.0625 0  0.59375 0.0625 0  0.625 0.0625 0  0.65625 0.0625 0  0.6875 0.0625 0  0.71875 0.0625 0  0.75 0.0625 0  0.78125 0.0625 0  0.8125 0.0625 0  0.84375 0.0625 0  0.875 0.0625 0  0.90625 0.0625 0  0.9375 0.0625 0  0.96875 0.0625 0  1 0.0625 0  0 0.09375 0  0.03125 0.09375 0  0.0625 0.09375 0  0.09375 0.09375 0  0.125 0.09375 0  0.15625 0.09375 0  0.1875 0.09375 0  0.21875 0.09375 0  0.25 0.09375 0  0.28125 0.09375 0  0.3125 0.09375 0  0.34375 0.09375 0  0.375 0.09375 0  0.40625 0.09375 0  0.4375 0.09375 0  0.46875 0.09375 0  0.5 0.09375 0  0.53125 0.09375 0  0.5625 0.09375 0  0.59375 0.09375 0  0.625 0.09375 0  0.65625 0.09375 0  0.6875 0.09375 0  0.71875 0.09375 0  0.75 0.09375 0  0.78125 0.09375 0  0.8125 0.09375 0  0.84375 0.09375 0  0.875 0.09375 0  0.90625 0.09375 0  0.9375 0.09375 0  0.96875 0.09375 0  1 0.09375 0  0 0.125 0  0.03125 0.125 0  0.0625 0.125 0  0.09375 0.125 0  0.125 0.125 0  0.15625 0.125 0  0.1875 0.125 0  0.21875 0.125 0  0.25 0.125 0  0.28125 0.125 0  0.3125 0.125 0  0.34375 0.125 0  0.375 0.125 0  0.40625 0.125 0  0.4375 0.125 0  0.46875 0.125 0  0.5 0.125 0  0.53125 0.125 0  0.5625 0.125 0  0.59375 0.125 0  0.625 0.125 0  0.65625 0.125 0  0.6875 0.125 0  0.71875 0.125 0  0.75 0.125 0  0.78125 0.125 0  0.8125 0.125 0  0.84375 0.125 0  0.875 0.125 0  0.90625 0.125 0  0.9375 0.125 0  0.96875 0.125 0  1 0.125 0  0 0.15625 0  0.03125 0.15625 0  0.0625 0.15625 0  0.09375 0.15625 0  0.125 0.15625 0  0.15625 0.15625 0  0.1875 0.15625 0  0.21875 0.15625 0  0.25 0.15625 0  0.28125 0.15625 0  0.3125 0.15625 0  0.34375 0.15625 0  0.375 0.15625 0  0.40625 0.15625 0  0.4375 0.15625 0  0.46875 0.15625 0  0.5 0.15625 0  0.53125 0.15625 0  0.5625 0.15625 0  0.59375 0.15625 0  0.625 0.15625 0  0.65625 0.15625 0  0.6875 0.15625 0  0.71875 0.15625 0  0.75 0.15625 0  0.78125 0.15625 0  0.8125 0.15625 0  0.84375 0.15625 0  0.875 0.15625 0  0.90625 0.15625 0  0.9375 0.15625 0  0.96875 0.15625 0  1 0.15625 0  0 0.1875 0  0.03125 0.1875 0  0.0625 0.1875 0  0.09375 0.1875 0  0.125 0.1875 0  0.15625 0.1875 0  0.1875 0.1875 0  0.21875 0.1875 0  0.25 0.1875 0  0.28125 0.1875 0  0.3125 0.1875 0  0.34375 0.1875 0  0.375 0.1875 0  0.40625 0.1875 0  0.4375 0.1875 0  0.46875 0.1875 0  0.5 0.1875 0  0.53125 0.1875 0  0.5625 0.1875 0  0.59375 0.1875 0  0.625 0.1875 0  0.65625 0.1875 0  0.6875 0.1875 0  0.71875 0.1875 0  0.75 0.1875 0  0.78125 0.1875 0  0.8125 0.1875 0  0.84375 0.1875 0  0.875 0.1875 0  0.90625 0.1875 0  0.9375 0.1875 0  0.96875 0.1875 0  1 0.1875 0  0 0.21875 0  0.03125 0.21875 0  0.0625 0.21875 0  0.09375 0.21875 0  0.125 0.21875 0  0.15625 0.21875 0  0.1875 0.21875 0  0.21875 0.21875 0  0.25 0.21875 0  0.28125 0.21875 0  0.3125 0.21875 0  0.34375 0.21875 0  0.375 0.21875 0  0.40625 0.21875 0  0.4375 0.21875 0  0.46875 0.21875 0  0.5 0.21875 0  0.53125 0.21875 0  0.5625 0.21875 0  0.59375 0.21875 0  0.625 0.21875 0  0.65625 0.21875 0  0.6875 0.21875 0  0.71875 0.21875 0  0.75 0.21875 0  0.78125 0.21875 0  0.8125 0.21875 0  0.84375 0.21875 0  0.875 0.21875 0  0.90625 0.21875 0  0.9375 0.21875 0  0.96875 0.21875 0  1 0.21875 0  0 0.25 0  0.03125 0.25 0  0.0625 0.25 0  0.09375 0.25 0  0.125 0.25 0  0.15625 0.25 0  0.1875 0.25 0  0.21875 0.25 0  0.25 0.25 0  0.28125 0.25 0  0.3125 0.25 0  0.34375 0.25 0  0.375 0.25 0  0.40625 0.25 0  0.4375 0.25 0  0.46875 0.25 0  0.5 0.25 0  0.53125 0.25 0  0.5625 0.25 0  0.59375 0.25 0  0.625 0.25 0  0.65625 0.25 0  0.6875 0.25 0  0.71875 0.25 0  0.75 0.25 0  0.78125 0.25 0  0.8125 0.25 0  0.84375 0.25 0  0.875 0.25 0  0.90625 0.25 0  0.9375 0.25 0  0.96875 0.25 0  1 0.25 0  0 0.28125 0  0.03125 0.28125 0  0.0625 0.28125 0  0.09375 0.28125 0  0.125 0.28125 0  0.15625 0.28125 0  0.1875 0.28125 0  0.21875 0.28125 0  0.25 0.28125 0  0.28125 0.28125 0  0.3125 0.28125 0  0.34375 0.28125 0  0.375 0.28125 0  0.40625 0.28125 0  0.4375 0.28125 0  0.46875 0.28125 0  0.5 0.28125 0  0.53125 0.28125 0  0.5625 0.28125 0  0.59375 0.28125 0  0.625 0.28125 0  0.65625 0.28125 0  0.6875 0.28125 0  0.71875 0.28125 0  0.75 0.28125 0  0.78125 0.28125 0  0.8125 0.28125 0  0.84375 0.28125 0  0.875 0.28125 0  0.90625 0.28125 0  0.9375 0.28125 0  0.96875 0.28125 0  1 0.28125 0  0 0.3125 0  0.03125 0.3125 0  0.0625 0.3125 0  0.09375 0.3125 0  0.125 0.3125 0  0.15625 0.3125 0  0.1875 0.3125 0  0.21875 0.3125 0  0.25 0.3125 0  0.28125 0.3125 0  0.3125 0.3125 0  0.34375 0.3125 0  0.375 0.3125 0  0.40625 0.3125 0  0.4375 0.3125 0  0.46875 0.3125 0  0.5 0.3125 0  0.53125 0.3125 0  0.5625 0.3125 0  0.59375 0.3125 0  0.625 0.3125 0  0.65625 0.3125 0  0.6875 0.3125 0  0.71875 0.3125 0  0.75 0.3125 0  0.78125 0.3125 0  0.8125 0.3125 0  0.84375 0.3125 0  0.875 0.3125 0  0.90625 0.3125 0  0.9375 0.3125 0  0.96875 0.3125 0  1 0.3125 0  0 0.34375 0  0.03125 0.34375 0  0.0625 0.34375 0  0.09375 0.34375 0  0.125 0.34375 0  0.15625 0.34375 0  0.1875 0.34375 0  0.21875 0.34375 0  0.25 0.34375 0  0.28125 0.34375 0  0.3125 0.34375 0  0.34375 0.34375 0  0.375 0.34375 0  0.40625 0.34375 0  0.4375 0.34375 0  0.46875 0.34375 0  0.5 0.34375 0  0.53125 0.34375 0  0.5625 0.34375 0  0.59375 0.34375 0  0.625 0.34375 0  0.65625 0.34375 0  0.6875 0.34375 0  0.71875 0.34375 0  0.75 0.34375 0  0.78125 0.34375 0  0.8125 0.34375 0  0.84375 0.34375 0  0.875 0.34375 0  0.90625 0.34375 0  0.9375 0.34375 0  0.96875 0.34375 0  1 0.34375 0  0 0.375 0  0.03125 0.375 0  0.0625 0.375 0  0.09375 0.375 0  0.125 0.375 0  0.15625 0.375 0  0.1875 0.375 0  0.21875 0.375 0  0.25 0.375 0  0.28125 0.375 0  0.3125 0.375 0  0.34375 0.375 0  0.375 0.375 0  0.40625 0.375 0  0.4375 0.375 0  0.46875 0.375 0  0.5 0.375 0  0.53125 0.375 0  0.5625 0.375 0  0.59375 0.375 0  0.625 0.375 0  0.65625 0.375 0  0.6875 0.375 0  0.71875 0.375 0  0.75 0.375 0  0.78125 0.375 0  0.8125 0.375 0  0.84375 0.375 0  0.875 0.375 0  0.90625 0.375 0  0.9375 0.375 0  0.96875 0.375 0  1 0.375 0  0 0.40625 0  0.03125 0.40625 0  0.0625 0.40625 0  0.09375 0.40625 0  0.125 0.40625 0  0.15625 0.40625 0  0.1875 0.40625 0  0.21875 0.40625 0  0.25 0.40625 0  0.28125 0.40625 0  0.3125 0.40625 0  0.34375 0.40625 0  0.375 0.40625 0  0.40625 0.40625 0  0.4375 0.40625 0  0.46875 0.40625 0  0.5 0.40625 0  0.53125 0.40625 0  0.5625 0.40625 0  0.59375 0.40625 0  0.625 0.40625 0  0.65625 0.40625 0  0.6875 0.40625 0  0.71875 0.40625 0  0.75 0.40625 0  0.78125 0.40625 0  0.8125 0.40625 0  0.84375 0.40625 0  0.875 0.40625 0  0.90625 0.40625 0  0.9375 0.40625 0  0.96875 0.40625 0  1 0.40625 0  0 0.4375 0  0.03125 0.4375 0  0.0625 0.4375 0  0.09375 0.4375 0  0.125 0.4375 0  0.15625 0.4375 0  0.1875 0.4375 0  0.21875 0.4375 0  0.25 0.4375 0  0.28125 0.4375 0  0.3125 0.4375 0  0.34375 0.4375 0  0.375 0.4375 0  0.40625 0.4375 0  0.4375 0.4375 0  0.46875 0.4375 0  0.5 0.4375 0  0.53125 0.4375 0  0.5625 0.4375 0  0.59375 0.4375 0  0.625 0.4375 0  0.65625 0.4375 0  0.6875 0.4375 0  0.71875 0.4375 0  0.75 0.4375 0  0.78125 0.4375 0  0.8125 0.4375 0  0.84375 0.4375 0  0.875 0.4375 0  0.90625 0.4375 0  0.9375 0.4375 0  0.96875 0.4375 0  1 0.4375 0  0 0.46875 0  0.03125 0.46875 0  0.0625 0.46875 0  0.09375 0.46875 0  0.125 0.46875 0  0.15625 0.46875 0  0.1875 0.46875 0  0.21875 0.46875 0  0.25 0.46875 0  0.28125 0.46875 0  0.3125 0.46875 0  0.34375 0.46875 0  0.375 0.46875 0  0.40625 0.46875 0  0.4375 0.46875 0  0.46875 0.46875 0  0.5 0.46875 0  0.53125 0.46875 0  0.5625 0.46875 0  0.59375 0.46875 0  0.625 0.46875 0  0.65625 0.46875 0  0.6875 0.46875 0  0.71875 0.46875 0  0.75 0.46875 0  0.78125 0.46875 0  0.8125 0.46875 0  0.84375 0.46875 0  0.875 0.46875 0  0.90625 0.46875 0  0.9375 0.46875 0  0.96875 0.46875 0  1 0.46875 0  0 0.5 0  0.03125 0.5 0  0.0625 0.5 0  0.09375 0.5 0  0.125 0.5 0  0.15625 0.5 0  0.1875 0.5 0  0.21875 0.5 0  0.25 0.5 0  0.28125 0.5 0  0.3125 0.5 0  0.34375 0.5 0  0.375 0.5 0  0.40625 0.5 0  0.4375 0.5 0  0.46875 0.5 0  0.5 0.5 0  0.53125 0.5 0  0.5625 0.5 0  0.59375 0.5 0  0.625 0.5 0  0.65625 0.5 0  0.6875 0.5 0  0.71875 0.5 0  0.75 0.5 0  0.78125 0.5 0  0.8125 0.5 0  0.84375 0.5 0  0.875 0.5 0  0.90625 0.5 0  0.9375 0.5 0  0.96875 0.5 0  1 0.5 0  0 0.53125 0  0.03125 0.53125 0  0.0625 0.53125 0  0.09375 0.53125 0  0.125 0.53125 0  0.15625 0.53125 0  0.1875 0.53125 0  0.21875 0.53125 0  0.25 0.53125 0  0.28125 0.53125 0  0.3125 0.53125 0  0.34375 0.53125 0  0.375 0.53125 0  0.40625 0.53125 0  0.4375 0.53125 0  0.46875 0.53125 0  0.5 0.53125 0  0.53125 0.53125 0  0.5625 0.53125 0  0.59375 0.53125 0  0.625 0.53125 0  0.65625 0.53125 0  0.6875 0.53125 0  0.71875 0.53125 0  0.75 0.53125 0  0.78125 0.531
[...]
<PointData  Scalars="u_sol"> 
<DataArray  type="Float64"  Name="u_sol"  format="ascii">-5.5352693976499782e-05  -7.7987311478535940e-05  8.6088471032401924e-04  3.0277815512377293e-03  2.2027118328071084e-03  2.0474366918353522e-03  7.1418696981013466e-04  4.4452557432508744e-03  6.2567331307983066e-03  -7.8849951125274328e-04  7.7131496457260992e-03  2.1104868338632839e-02  1.9966228740598394e-02  8.0177001250447792e-03  -6.1521130524432874e-03  -1.4540389152813103e-02  -1.2610552408656373e-02  6.8713408854531729e-04  2.3614549204828670e-02  4.9825675177048140e-02  7.1282232851249100e-02  7.7953501146656307e-02  6.3199826780141244e-02  3.2739667926967544e-02  3.2197387117691655e-03  -7.9172256225423128e-03  -4.1637812311054049e-03  -1.0362646152921248e-03  -8.3606856514453277e-04  -5.3191724105618665e-04  -3.1890184581591943e-04  -1.1171302057974816e-04  2.9791280986063308e-05  -2.5566538600529232e-04  1.4040492934533457e-03  6.1161176493716102e-03  1.4993227374526611e-02  2.3579540222186952e-02  1.1045926737812397e-02  -8.4531213475362282e-03  -3.3609846742422090e-03  5.6471086320978451e-03  -6.8665548804668387e-03  -4.5380454054454449e-02  -9.7917431047433334e-02  -1.4468942819526048e-01  -1.7899867691166280e-01  -1.9841387771848959e-01  -2.0233062426697024e-01  -1.9069132626343988e-01  -1.6377913851507062e-01  -1.2341400349392004e-01  -7.2733045804188740e-02  -1.8758099855629231e-02  2.9865130125552475e-02  6.3458184502398110e-02  7.6118157520831703e-02  6.9748759179062772e-02  4.9913823524443381e-02  2.6849937243334177e-02  1.1597535970302988e-02  4.5781672507877701e-03  1.1453837333966284e-03  -1.9178769257626878e-04  -2.5351295802020820e-04  1.3136699723129467e-05  -5.2608468300307382e-04  2.2926397445799875e-03  5.1355000865808981e-03  7.8027088797187503e-03  1.8243113917330061e-02  2.9541065747105019e-02  2.9378617949670494e-02  -7.6286492136748785e-03  -7.6768941943926639e-02  -1.4835712944491916e-01  -2.1692148188904462e-01  -2.7356456842836396e-01  -3.1571179466658228e-01  -3.4408444681015804e-01  -3.6026696287028015e-01  -3.6591103478481840e-01  -3.6132563217276831e-01  -3.4590759929160908e-01  -3.1788745343759228e-01  -2.7546509899733440e-01  -2.1787795826815071e-01  -1.4846539674424966e-01  -7.5626827903531618e-02  -1.3996939669988958e-02  2.1699563494878733e-02  3.3394724803936689e-02  3.3059839689573420e-02  2.4360826048337138e-02  1.3338731955932008e-02  6.1207928202601817e-03  2.1700021479936892e-03  2.5357176739853032e-04  -5.0362528977122735e-05  -5.4180856508402445e-04  2.6520744275075627e-03  6.3946504413127797e-03  -9.9611149135024040e-03  -3.8536585029394881e-02  -4.8562530116599091e-02  -7.1301437128619596e-02  -1.3619875487263031e-01  -2.1526175128686786e-01  -2.8597554559746097e-01  -3.3924207993708499e-01  -3.7454608494034980e-01  -3.9618889613074149e-01  -4.0814831474204677e-01  -4.1434465022078631e-01  -4.1703876011585395e-01  -4.1754475638396171e-01  -4.1563866150372014e-01  -4.0927393207911844e-01  -3.9395727813791609e-01  -3.6266210030054497e-01  -3.0850481967516824e-01  -2.2942349110026028e-01  -1.3559341457236432e-01  -4.9818150090609997e-02  -4.2048372866897350e-04  1.4434243559290426e-02  1.8969314809325316e-02  1.7352751270967335e-02  1.0360474921831423e-02  4.4366935848760844e-03  1.3000184487392907e-03  -2.5680001870859572e-04  -8.3301650706711910e-04  4.8154048780674492e-03  8.4177111275578441e-03  1.3610802381835452e-02  3.9304644274790251e-03  -5.1591567569155436e-02  -1.4333236566966270e-01  -2.3848170042562070e-01  -3.1114764402757078e-01  -3.5556414754429227e-01  -3.7636516745918830e-01  -3.8327672147668640e-01  -3.8368182361761893e-01  -3.8256358337388169e-01  -3.8192187711376313e-01  -3.8272891730459618e-01  -3.8543285764190777e-01  -3.9058645114220808e-01  -3.9851720114989825e-01  -4.0783944931317523e-01  -4.1356504158087687e-01  -4.0484836716557782e-01  -3.6744902943052132e-01  -2.9067042474619348e-01  -1.8111010348674986e-01  -6.8861748081779098e-02  -5.1790902652056568e-03  9.1764664433178957e-03  1.1532825065876485e-02  1.1422043048861257e-02  7.6445887279210142e-03  1.8402351674676521e-03  -2.4906656406169605e-04  -2.5927657455376304e-04  5.2700583760813538e-03  1.5946790548294263e-03  -2.5104765639509738e-02  -8.1632698838730908e-02  -1.6962087019339600e-01  -2.5883192827523749e-01  -3.1699794860528563e-01  -3.4232928954601061e-01  -3.4579561685220861e-01  -3.4169700625618227e-01  -3.3812666296125032e-01  -3.3775732115782564e-01  -3.3961709757182884e-01  -3.4221360889404340e-01  -3.4443364412638622e-01  -3.4591265706256341e-01  -3.4696633837583757e-01  -3.4871971566094795e-01  -3.5345472893654473e-01  -3.6374783955934625e-01  -3.7958508949372116e-01  -3.9215064345012640e-01  -3.8143974375744605e-01  -3.2306199476271147e-01  -2.1152191873026227e-01  -7.7660366009584106e-02  -4.5558345167044049e-03  7.9057497407921916e-03  7.5462930388806634e-03  3.0351705187409836e-03  2.1786551003854654e-03  -5.1728070337892136e-04  1.1453453759593510e-03  1.5997696251003324e-03  -1.5306907429733488e-02  -5.7084552324211238e-02  -1.3521157824465882e-01  -2.2273283555360496e-01  -2.7789456902583187e-01  -2.9909642348773446e-01  -3.0249820745022216e-01  -3.0340530674758576e-01  -3.0779915283573361e-01  -3.1478769032197945e-01  -3.2182023835393742e-01  -3.2753647956701404e-01  -3.3192356599285217e-01  -3.3547187286610924e-01  -3.3853324867857709e-01  -3.4104171414237994e-01  -3.4237751104581482e-01  -3.4166982340642188e-01  -3.3891919908225793e-01  -3.3713746427274754e-01  -3.4252750986453351e-01  -3.5677572602510055e-01  -3.6327618869266998e-01  -3.2534533965340162e-01  -2.1871066520878474e-01  -6.9216686015338230e-02  -1.2244010844802012e-03  5.2455961844117107e-03  1.1125651290033709e-02  3.3321112924031607e-04  3.6252544348433616e-04  1.6673585398595942e-03  -5.6005092139415407e-03  -3.9139812850260421e-02  -1.1111852742505111e-01  -1.9908252201978069e-01  -2.5905610783249272e-01  -2.8146057943990210e-01  -2.8418839487246600e-01  -2.8343034004977141e-01  -2.8513597749980768e-01  -2.8867148531970954e-01  -2.9149291015618073e-01  -2.9329252170287790e-01  -2.9459274773058802e-01  -2.9619084279485236e-01  -2.9822272044039572e-01  -3.0084125104677351e-01  -3.0424244479243445e-01  -3.0875850035179225e-01  -3.1440285606959090e-01  -3.1998335447710435e-01  -3.2284568641632050e-01  -3.2088947561035558e-01  -3.1814810517204600e-01  -3.2412305254128121e-01  -3.3383416149914769e-01  -3.0717565082416448e-01  -2.0172257274195854e-01  -4.2941484313581066e-02  4.1075813686566581e-03  -1.1404210496676736e-02  3.8760095894789055e-03  -1.6615992061426324e-03  3.3757532521842700e-03  -1.5947633609194933e-02  -7.3255573144030542e-02  -1.4829248925904240e-01  -2.0904421632613132e-01  -2.3474583701671911e-01  -2.3646029620025510e-01  -2.3562697850199593e-01  -2.3931489516252927e-01  -2.4725760958122689e-01  -2.5415094677408123e-01  -2.5924457113853649e-01  -2.6363551754187886e-01  -2.6816423186051691e-01  -2.7253481733764934e-01  -2.7636034928060216e-01  -2.7947682724277839e-01  -2.8171492844179385e-01  -2.8310813058071022e-01  -2.8391556619951552e-01  -2.8530036603637543e-01  -2.8850768604497101e-01  -2.9349807606564454e-01  -2.9656502960600384e-01  -2.9560532862895150e-01  -2.9731442825109783e-01  -3.0346588019552656e-01  -2.7651401181642565e-01  -1.5862205645121319e-01  -1.4347198941677979e-02  2.2118485616177876e-02  8.7846810259846020e-04  1.5539978595535613e-04  3.4221452140815430e-03  -3.3705092061658615e-02  -9.5257825704414281e-02  -1.6083526328484582e-01  -2.0365630205758162e-01  -2.1489494574947057e-01  -2.1749020573350908e-01  -2.2290720491935356e-01  -2.3032374290137905e-01  -2.3443366918689965e-01  -2.3481570519329553e-01  -2.3604893097116000e-01  -2.3877846535780892e-01  -2.4194578014083182e-01  -2.4479369618559932e-01  -2.4766388754424881e-01  -2.5081104941301463e-01  -2.5438696934796223e-01  -2.5833790015094843e-01  -2.6212991255787743e-01  -2.6486473519579057e-01  -2.6555154034795619e-01  -2.6477794385658387e-01  -2.6486439122169370e-01  -2.6695414582478416e-01  -2.6895064702853333e-01  -2.7248092585954814e-01  -2.7323646319452483e-01  -2.3605543414621422e-01  -8.4118431124546103e-02  -9.7229028911947762e-03  -2.1696901015359888e-02  7.5895437101733201e-03  3.0469112852624801e-03  -3.9701510912449722e-02  -1.0273874388780481e-01  -1.5366534672942014e-01  -1.7276729161400131e-01  -1.7289709089093325e-01  -1.7439757907454079e-01  -1.7975377695564940e-01  -1.8404034042755898e-01  -1.8677196856850606e-01  -1.9256131031237411e-01  -2.0061032583457444e-01  -2.0660858601802720e-01  -2.1077958073638436e-01  -2.1436902494870502e-01  -2.1786807732616523e-01  -2.2097912353425780e-01  -2.2363409835874229e-01  -2.2591152986018695e-01  -2.2828670976662918e-01  -2.3144877377349007e-01  -2.3577907887225280e-01  -2.4010988741010764e-01  -2.4198227295471653e-01  -2.4044809347449791e-01  -2.3842801897971128e-01  -2.4006680393984431e-01  -2.4683957685989588e-01  -2.3995179367102210e-01  -1.7731727639422376e-01  -1.1122624260771975e-02  5.1838023783405830e-02  -1.0782354910044470e-02  3.5044080821488815e-03  -4.2318723139212103e-02  -9.5965041794413633e-02  -1.3069902728698771e-01  -1.4489595464706154e-01  -1.5028495168814329e-01  -1.5903635868620422e-01  -1.6659864612297048e-01  -1.7152140412142175e-01  -1.7631975250534129e-01  -1.8133710879679632e-01  -1.8242903235349620e-01  -1.8232085850502858e-01  -1.8460871774642129e-01  -1.8812461884411405e-01  -1.9176028938438022e-01  -1.9526574285576626e-01  -1.9882465548061826e-01  -2.0223282387349609e-01  -2.0510888874775732e-01  -2.0678383805007269e-01  -2.0728267196057326e-01  -2.0795159958684034e-01  -2.1070261344349600e-01  -2.1452976712540353e-01  -2.1551197936260302e-01  -2.1158041612602069e-01  -2.1252384823048889e-01  -2.1926039597379379e-01  -1.9558338376981976e-01  -7.2369280874321484e-02  -2.6571144691422102e-02  -2.2354590954165608e-02  2.3704125373061706e-03  -3.5180306116984868e-02  -7.9494186136261080e-02  -1.0509790720668029e-01  -1.1088736804094029e-01  -1.1301408349683495e-01  -1.1778786463876895e-01  -1.2126918816177774e-01  -1.2436948938301076e-01  -1.2899095706302990e-01  -1.3293519296040432e-01  -1.3707413280370112e-01  -1.4492852786277341e-01  -1.5204522233245782e-01  -1.5630127314006736e-01  -1.5959719230286851e-01  -1.6269552278929975e-01  -1.6574260147121381e-01  -1.6874488960023470e-01  -1.7219096524074790e-01  -1.7634777630284007e-01  -1.8080837255379015e-01  -1.8385654547674715e-01  -1.8472662058588468e-01  -1.8453521357666713e-01  -1.8611902211810494e-01  -1.8799896967129265e-01  -1.8441657940340883e-01  -1.8663039470648626e-01  -1.9062664526058584e-01  -1.2471404238406200e-01  -6.3850266359745068e-03  1.5648014407262881e-02  3.2538055914129345e-03  -2.6592227157864089e-02  -5.9480858246656450e-02  -7.5186956458571388e-02  -8.3795522143935361e-02  -9.2227431969071780e-02  -1.0135876823837273e-01  -1.0760714569002106e-01  -1.1357289247020810e-01  -1.1879938216515272e-01  -1.2209322363296526e-01  -1.2599976709436841e-01  -1.2841363196867647e-01  -1.2752052032021036e-01  -1.2871531000535485e-01  -1.3227288941545418e-01  -1.3607995041854665e-01  -1.3974696180364651e-01  -1.4302757986398804e-01  -1.4568101829956917e-01  -1.4749456696621649e-01  -1.4938399685338216e-01  -1.5208347618056955e-01  -1.5594247146037449e-01  -1.5980544598953825e-01  -1.6061060656641982e-01  -1.6024003076478863e-01  -1.5963380704666411e-01  -1.5756529752251075e-01  -1.5717707817002652e-01  -1.3096401295872945e-01  5.0626535897907851e-03  3.5874191548564478e-02  2.1397721195150644e-03  -1.3622841142214013e-02  -3.6791345383786332e-02  -4.9522924835893010e-02  -5.3865017803011193e-02  -5.7245955085569386e-02  -6.0387755044202587e-02  -6.2891009524326066e-02  -6.6007133484368610e-02  -6.8919196195991420e-02  -7.2435804624941258e-02  -7.7130857165245204e-02  -8.0883272809436066e-02  -8.7028984699844048e-02  -9.5182050692980497e-02  -1.0001990521869215e-01  -1.0321795325752203e-01  -1.0651906494301296e-01  -1.1011314265797047e-01  -1.1438420212198752e-01  -1.1887097250607430e-01  -1.2310066934389458e-01  -1.2656391759328073e-01  -1.2810119356512648e-01  -1.2983953997110970e-01  -1.3320675999472026e-01  -1.3645147141712188e-01  -1.3560901323485838e-01  -1.3334563258394336e-01  -1.3611428218759222e-01  -1.2379458101928337e-01  2.3039613397259464e-04  3.5271059694841317e-02  3.2387968849966970e-03  -1.9803275091301656e-03  -1.5421337261138127e-02  -2.1621845907394376e-02  -2.9030146163781901e-02  -3.7019046386523313e-02  -4.4385166374961892e-02  -5.0313345598942655e-02  -5.5688022562535223e-02  -6.0122727142081944e-02  -6.3974673439471136e-02  -6.6813925605340524e-02  -6.8921372901865827e-02  -7.1626799540452479e-02  -7.1436854280592849e-02  -7.1011805173934198e-02  -7.4333988955271144e-02  -7.8255971461091089e-02  -8.1602031880660439e-02  -8.4679347979325539e-02  -8.7877871475747160e-02  -9.0866892698760984e-02  -9.5259283415498663e-02  -1.0065668559572036e-01  -1.0528549754354381e-01  -1.0752945072701954e-01  -1.0946643603422550e-01  -1.1353361329098538e-01  -1.1199924502344669e-01  -1.1098196116191075e-01  -1.2167490810070852e-01  -5.8628348432978053e-02  1.4185265208451488e-02  1.9512082817103532e-03  1.1737495841594600e-02  7.0758552780288740e-03  1.6095567896976788e-03  -1.3180080888754722e-03  -3.1449218498358716e-03  -4.0868092525743914e-03  -5.5867619057557343e-03  -7.2401655142854821e-03  -9.0849832835209407e-03  -1.1631458696333679e-02  -1.4650674113026643e-02  -1.8609778919800604e-02  -2.2896594869672337e-02  -2.7409030042356664e-02  -3.5217930627499699e-02  -4.1726259227817711e-02  -4.5086547037938463e-02  -4.9303672409147611e-02  -5.3634582235914337e-02  -5.8932235606773083e-02  -6.4038540377150385e-02  -6.8241188789974094e-02  -7.1608325128938444e-02  -7.5672706755990665e-02  -8.1630920839835891e-02  -8.6582975410811211e-02  -8.9917157123068331e-02  -9.4462061678821402e-02  -9.8687485462968599e-02  -1.1401266937405338e-01  -1.0757778634373460e-01  -9.6907694322125020e-03  2.9268368371701109e-03  2.2920733889221070e-02  2.7420667338850530e-02  2.7864171382713264e-02  2.2318533709632701e-02  1.6103122207487094e-02  1.0700617761824498e-02  5.7554999846094867e-03  1.6217241347869437e-03  -2.0486990255028335e-03  -5.0011709795242994e-03  -7.1962330239227637e-03  -9.0180777590367928e-03  -1.0285546387075680e-02  -1.1820351820136785e-02  -1.2895344538334581e-02  -1.1907882157000253e-02  -1.3545590950840196e-02  -1.8531724588538891e-02  -2.2339022363060901e-02  -2.6460192810237957e-02  -3.1204730958036331e-02  -3.7216997890047551e-02  -4.4381546561502096e-02  -5.0715466969006417e-02  -5.5464382608922287e-02  -6.0753957215929098e-02  -6.7883847046550205e-02  -7.3261232937250342e-02  -7.5297303907976024e-02  -9.6118364639127346e-02  -9.8958838274191496e-02  -9.1637849227313457e-03  8.0732446701259060e-04  3.4341714355950209e-02  4.8486323698530752e-02  4.9758068460253331e-02  4.9534667823844018e-02  4.9695813785839781e-02  5.1160747164790632e-02  5.1226756265420496e-02  5.1243565156806128e-02  5.0825398131032408e-02  4.9720121495434075e-02  4.7890560740450734e-02  4.5289340959027591e-02  4.2129561588394294e-02  3.8130035125665901e-02  3.4046916863522673e-02  2.7588776538145440e-02  1.9430368521398386e-02  1.4213820498583938e-02  9.7369356841083294e-03  3.1340604563960400e-03  -3.1623097628112233e-03  -8.9967405308358523e-03  -1.4495593968505961e-02  -2.1137108927661415e-02  -2.9753477479708381e-02  -3.7739461752317377e-02  -4.3867300182653848e-02  -5.4236725806215844e-02  -5.9734802766439235e-02  -7.1117741705557735e-02  -7.9683929192130035e-02  -1.0335607549975675e-02  5.0424081906441816e-04  3.9607713897877470e-02  6.5974094146828852e-02  7.5134973794473509e-02  7.2498864135561114e-02  6.7679333243163900e-02  6.4233073671789709e-02  6.0752717166485545e-02  5.7849992063024193e-02  5.5382047826981848e-02  5.3562488193319401e-02  5.2454232885516101e-02  5.1685378778331029e-02  5.1267175840902353e-02  5.0406328027610171e-02  4.9910508743427666e-02  4.8691440849042068e-02  4.8293995610559505e-02  4.7481291610006950e-02  4.2220401264139805e-02  3.6089602905848679e-02  3.0519909215809441e-02  2.2442124041548626e-02  1.3294592582943021e-02  4.5514821493074864e-03  -2.9990169248742819e-03  -1.1770344482791196e-02  -2.1617975184581154e-02  -3.0423817794029466e-02  -3.5604005669889270e-02  -4.8136375712254598e-02  -5.5932637021875745e-02  -6.9813531518858954e-03  -4.7633994860713852e-03  3.9678683113717542e-02  8.1779853255014578e-02  9.5577298583083767e-02  1.0061322447576415e-01  1.0221377965409711e-01  1.0575943202349875e-01  1.0776937616997921e-01  1.0936227018453301e-01  1.1065360952427743e-01  1.1104771810784088e-01  1.1077812066502106e-01  1.0942739331070521e-01  1.0772609791889336e-01  1.0487371548164590e-01  1.0118927363918802e-01  9.6746935023079503e-02  9.0911285439935638e-02  8.2440380371872665e-02  7.3611175635987819e-02  6.7348407634137311e-02  6.0028269575251154e-02  5.1357774617629352e-02  4.4064763116098131e-02  3.4670311783229386e-02  2.3113870757573079e-02  1.1884400927697951e-02  2.2593406222545160e-03  -1.1067161512356665e-02  -2.0518519986610279e-02  -2.8189939820100113e-02  -4.1673288275418302e-02  -8.0918394064319402e-03  -8.5822098498750388e-03  2.8220520868906064e-02  9.1103783271931693e-02  1.1897152153739204e-01  1.2301105035960862e-01  1.1896171821648964e-01  1.1625671188049459e-01  1.1454861078161234e-01  1.1263727409359851e-01  1.1154630541674841e-01  1.1100945900373450e-01  1.1151889010505175e-01  1.1205296159619005e-01  1.1279072702422809e-01  1.1350640025755179e-01  1.1339221023750941e-01  1.1244821571528703e-01  1.1068394271623883e-01  1.0865869894113464e-01  1.0683883779922852e-01  1.0256574783533622e-01  9.3829486641621301e-02  8.3919472248389332e-02  7.3505457370249966e-02  6.1086241268965592e-02  5.0482619674430386e-02  3.8313572895876620e-02  2.4305827732449530e-02  1.2182920421956870e-02  1.2630018549916575e-03  -1.2511771601521098e-02  -2.7982983018352975e-02  -6.1564945513583767e-03  -1.4918756136869061e-02  1.6596320190936403e-02  9.5442441780441312e-02  1.3500519546565112e-01  1.5267163208172307e-01  1.5620361872510349e-01  1.5977770465815194e-01  1.6365978589968605e-01  1.6687573095428712e-01  1.6995034958995156e-01  1.7200614247207804e-01  1.7343707252608351e-01  1.7409773725254923e-01  1.7348088858021282e-01  1.7203851567237660e-01  1.6968433642633218e-01  1.6621296958363285e-01  1.6138140005288298e-01  1.5485222792918715e-01  1.4584073005220222e-01  1.3444527212355956e-01  1.2336078732897958e-01  1.1486525103216780e-01  1.0516492870033553e-01  9.1946669533661776e-02  7.8059066231890156e-02  6.2488157344815207e-02  4.7946729143359290e-02  3.0613674924585527e-02  1.4390739283617622e-02  1.2436106726543008e-03  -2.1446908650751325e-02  -7.7396838587968919e-03  -8.7302240882229081e-03  7.8876241850209042e-03  8.6553772676217486e-02  1.4920310346673130e-01  1.7045330831786060e-01  1.7135549900601499e-01  1.6692298973629802e-01  1.6581469311143776e-01  1.6505692902350841e-01  1.6534165566556350e-01  1.6676880505389174e-01  1.6888665978999642e-01  1.7173955937561006e-01  1.7467850171297308e-01  1.7686480262239809e-01  1.7809716979612958e-01  1.7806120981101606e-01  1.7667926370948078e-01  1.7390648731585306e-01  1.7008324385573781e-01  1.6588860944251602e-01  1.6061145747584912e-01  1.5135417256572012e-01  1.3543046731559194e-01  1.1978251224745530e-01  1.0700679112360066e-01  8.9467147238657813e-02  7.0425072770871552e-02  5.3239539340659038e-02  3.4642986299264503e-02  1.2844617015257041e-02  -1.3597015029385361e-02  -6.5092535097865598e-03  1.4536906809882984e-03  1.2575135458120126e-02  6.2673216899916645e-02  1.4507045933312229e-01  1.9404905878409751e-01  2.1049938810545868e-01  2.1409781625040422e-01  2.1722585118802862e-01  2.2252897647069519e-01  2.2758440138979844e-01  2.3217117135792498e-01  2.3605062892589626e-01  2.3863377833588140e-01  2.4034900432792286e-01  2.4093592140237838e-01  2.4028518599140589e-01  2.381