<?xml version="1.0"?>
<VTKFile type="UnstructuredGrid"  version="0.1"  >
<UnstructuredGrid>
<Piece  NumberOfPoints="1089" NumberOfCells="1024">
<Points>
<DataArray  type="Float64"  NumberOfComponents="3"  format="ascii">0 0 0  0.03125 0 0  0.0625 0 0  0.09375 0 0  0.125 0 0  0.15625 0 0  0.1875 0 0  0.21875 0 0  0.25 0 0  0.28125 0 0  0.3125 0 0  0.34375 0 0  0.375 0 0  0.40625 0 0  0.4375 0 0  0.46875 0 0  0.5 0 0  0.53125 0 0  0.5625 0 0  0.59375 0 0  0.625 0 0  0.65625 0 0  0.6875 0 0  0.71875 0 0  0.75 0 0  0.78125 0 0  0.8125 0 0  0.84375 0 0  0.875 0 0  0.90625 0 0  0.9375 0 0  0.96875 0 0  1 0 0  0 0.03125 0  0.03125 0.03125 0  0.0625 0.03125 0  0.09375 0.03125 0  0.125 0.03125 0  0.15625 0.03125 0  0.1875 0.03125 0  0.21875 0.03125 0  0.25 0.03125 0  0.28125 0.03125 0  0.3125 0.03125 0  0.34375 0.03125 0  0.375 0.03125 0  0.40625 0.03125 0  0.4375 0.03125 0  0.46875 0.03125 0  0.5 0.03125 0  0.53125 0.03125 0  0.5625 0.03125 0  0.59375 0.03125 0  0.625 0.03125 0  0.65625 0.03125 0  0.6875 0.03125 0  0.71875 0.03125 0  0.75 0.03125 0  0.78125 0.03125 0  0.8125 0.03125 0  0.84375 0.03125 0  0.875 0.03125 0  0.90625 0.03125 0  0.9375 0.03125 0  0.96875 0.03125 0  1 0.03125 0  0 0.0625 0  0.03125 0.0625 0  0.0625 0.0625 0  0.09375 0.0625 0  0.125 0.0625 0  0.15625 0.0625 0  0.1875 0.0625 0  0.21875 0.0625 0  0.25 0.0625 0  0.28125 0.0625 0  0.3125 0.0625 0  0.34375 0.0625 0  0.375 0.0625 0  0.40625 0.0625 0  0.4375 0.0625 0  0.46875 0.0625 0  0.5 0.0625 0  0.53125 0.0625 0  0.5625 0.0625 0  0.59375 0.0625 0  0.625 0.0625 0  0.65625 0.0625 0  0.6875 0.0625 0  0.71875 0.0625 0  0.75 0.0625 0  0.78125 0.0625 0  0.8125 0.0625 0  0.84375 0.0625 0  0.875 0.0625 0  0.90625 0.0625 0  0.9375 0.0625 0  0.96875 0.0625 0  1 0.0625 0  0 0.09375 0  0.03125 0.09375 0  0.0625 0.09375 0  0.09375 0.09375 0  0.125 0.09375 0  0.15625 0.09375 0  0.1875 0.09375 0  0.21875 0.09375 0  0.25 0.09375 0  0.28125 0.09375 0  0.3125 0.09375 0  0.34375 0.09375 0  0.375 0.09375 0  0.40625 0.09375 0  0.4375 0.09375 0  0.46875 0.09375 0  0.5 0.09375 0  0.53125 0.09375 0  0.5625 0.09375 0  0.59375 0.09375 0  0.625 0.09375 0  0.65625 0.09375 0  0.6875 0.09375 0  0.71875 0.09375 0  0.75 0.09375 0  0.78125 0.09375 0  0.8125 0.09375 0  0.84375 0.09375 0  0.875 0.09375 0  0.90625 0.09375 0  0.9375 0.09375 0  0.96875 0.09375 0  1 0.09375 0  0 0.125 0  0.03125 0.125 0  0.0625 0.125 0  0.09375 0.125 0  0.125 0.125 0  0.15625 0.125 0  0.1875 0.125 0  0.21875 0.125 0  0.25 0.125 0  0.28125 0.125 0  0.3125 0.125 0  0.34375 0.125 0  0.375 0.125 0  0.40625 0.125 0  0.4375 0.125 0  0.46875 0.125 0  0.5 0.125 0  0.53125 0.125 0  0.5625 0.125 0  0.59375 0.125 0  0.625 0.125 0  0.65625 0.125 0  0.6875 0.125 0  0.71875 0.125 0  0.75 0.125 0  0.78125 0.125 0  0.8125 0.125 0  0.84375 0.125 0  0.875 0.125 0  0.90625 0.125 0  0.9375 0.125 0  0.96875 0.125 0  1 0.125 0  0 0.15625 0  0.03125 0.15625 0  0.0625 0.15625 0  0.09375 0.15625 0  0.125 0.15625 0  0.15625 0.15625 0  0.1875 0.15625 0  0.21875 0.15625 0  0.25 0.15625 0  0.28125 0.15625 0  0.3125 0.15625 0  0.34375 0.15625 0  0.375 0.15625 0  0.40625 0.15625 0  0.4375 0.15625 0  0.46875 0.15625 0  0.5 0.15625 0  0.53125 0.15625 0  0.5625 0.15625 0  0.59375 0.15625 0  0.625 0.15625 0  0.65625 0.15625 0  0.6875 0.15625 0  0.71875 0.15625 0  0.75 0.15625 0  0.78125 0.15625 0  0.8125 0.15625 0  0.84375 0.15625 0  0.875 0.15625 0  0.90625 0.15625 0  0.9375 0.15625 0  0.96875 0.15625 0  1 0.15625 0  0 0.1875 0  0.03125 0.1875 0  0.0625 0.1875 0  0.09375 0.1875 0  0.125 0.1875 0  0.15625 0.1875 0  0.1875 0.1875 0  0.21875 0.1875 0  0.25 0.1875 0  0.28125 0.1875 0  0.3125 0.1875 0  0.34375 0.1875 0  0.375 0.1875 0  0.40625 0.1875 0  0.4375 0.1875 0  0.46875 0.1875 0  0.5 0.1875 0  0.53125 0.1875 0  0.5625 0.1875 0  0.59375 0.1875 0  0.625 0.1875 0  0.65625 0.1875 0  0.6875 0.1875 0  0.71875 0.1875 0  0.75 0.1875 0  0.78125 0.1875 0  0.8125 0.1875 0  0.84375 0.1875 0  0.875 0.1875 0  0.90625 0.1875 0  0.9375 0.1875 0  0.96875 0.1875 0  1 0.1875 0  0 0.21875 0  0.03125 0.21875 0  0.0625 0.21875 0  0.09375 0.21875 0  0.125 0.21875 0  0.15625 0.21875 0  0.1875 0.21875 0  0.21875 0.21875 0  0.25 0.21875 0  0.28125 0.21875 0  0.3125 0.21875 0  0.34375 0.21875 0  0.375 0.21875 0  0.40625 0.21875 0  0.4375 0.21875 0  0.46875 0.21875 0  0.5 0.21875 0  0.53125 0.21875 0  0.5625 0.21875 0  0.59375 0.21875 0  0.625 0.21875 0  0.65625 0.21875 0  0.6875 0.21875 0  0.71875 0.21875 0  0.75 0.21875 0  0.78125 0.21875 0  0.8125 0.21875 0  0.84375 0.21875 0  0.875 0.21875 0  0.90625 0.21875 0  0.9375 0.21875 0  0.96875 0.21875 0  1 0.21875 0  0 0.25 0  0.03125 0.25 0  0.0625 0.25 0  0.09375 0.25 0  0.125 0.25 0  0.15625 0.25 0  0.1875 0.25 0  0.21875 0.25 0  0.25 0.25 0  0.28125 0.25 0  0.3125 0.25 0  0.34375 0.25 0  0.375 0.25 0  0.40625 0.25 0  0.4375 0.25 0  0.46875 0.25 0  0.5 0.25 0  0.53125 0.25 0  0.5625 0.25 0  0.59375 0.25 0  0.625 0.25 0  0.65625 0.25 0  0.6875 0.25 0  0.71875 0.25 0  0.75 0.25 0  0.78125 0.25 0  0.8125 0.25 0  0.84375 0.25 0  0.875 0.25 0  0.90625 0.25 0  0.9375 0.25 0  0.96875 0.25 0  1 0.25 0  0 0.28125 0  0.03125 0.28125 0  0.0625 0.28125 0  0.09375 0.28125 0  0.125 0.28125 0  0.15625 0.28125 0  0.1875 0.28125 0  0.21875 0.28125 0  0.25 0.28125 0  0.28125 0.28125 0  0.3125 0.28125 0  0.34375 0.28125 0  0.375 0.28125 0  0.40625 0.28125 0  0.4375 0.28125 0  0.46875 0.28125 0  0.5 0.28125 0  0.53125 0.28125 0  0.5625 0.28125 0  0.59375 0.28125 0  0.625 0.28125 0  0.65625 0.28125 0  0.6875 0.28125 0  0.71875 0.28125 0  0.75 0.28125 0  0.78125 0.28125 0  0.8125 0.28125 0  0.84375 0.28125 0  0.875 0.28125 0  0.90625 0.28125 0  0.9375 0.28125 0  0.96875 0.28125 0  1 0.28125 0  0 0.3125 0  0.03125 0.3125 0  0.0625 0.3125 0  0.09375 0.3125 0  0.125 0.3125 0  0.15625 0.3125 0  0.1875 0.3125 0  0.21875 0.3125 0  0.25 0.3125 0  0.28125 0.3125 0  0.3125 0.3125 0  0.34375 0.3125 0  0.375 0.3125 0  0.40625 0.3125 0  0.4375 0.3125 0  0.46875 0.3125 0  0.5 0.3125 0  0.53125 0.3125 0  0.5625 0.3125 0  0.59375 0.3125 0  0.625 0.3125 0  0.65625 0.3125 0  0.6875 0.3125 0  0.71875 0.3125 0  0.75 0.3125 0  0.78125 0.3125 0  0.8125 0.3125 0  0.84375 0.3125 0  0.875 0.3125 0  0.90625 0.3125 0  0.9375 0.3125 0  0.96875 0.3125 0  1 0.3125 0  0 0.34375 0  0.03125 0.34375 0  0.0625 0.34375 0  0.09375 0.34375 0  0.125 0.34375 0  0.15625 0.34375 0  0.1875 0.34375 0  0.21875 0.34375 0  0.25 0.34375 0  0.28125 0.34375 0  0.3125 0.34375 0  0.34375 0.34375 0  0.375 0.34375 0  0.40625 0.34375 0  0.4375 0.34375 0  0.46875 0.34375 0  0.5 0.34375 0  0.53125 0.34375 0  0.5625 0.34375 0  0.59375 0.34375 0  0.625 0.34375 0  0.65625 0.34375 0  0.6875 0.34375 0  0.71875 0.34375 0  0.75 0.34375 0  0.78125 0.34375 0  0.8125 0.34375 0  0.84375 0.34375 0  0.875 0.34375 0  0.90625 0.34375 0  0.9375 0.34375 0  0.96875 0.34375 0  1 0.34375 0  0 0.375 0  0.03125 0.375 0  0.0625 0.375 0  0.09375 0.375 0  0.125 0.375 0  0.15625 0.375 0  0.1875 0.375 0  0.21875 0.375 0  0.25 0.375 0  0.28125 0.375 0  0.3125 0.375 0  0.34375 0.375 0  0.375 0.375 0  0.40625 0.375 0  0.4375 0.375 0  0.46875 0.375 0  0.5 0.375 0  0.53125 0.375 0  0.5625 0.375 0  0.59375 0.375 0  0.625 0.375 0  0.65625 0.375 0  0.6875 0.375 0  0.71875 0.375 0  0.75 0.375 0  0.78125 0.375 0  0.8125 0.375 0  0.84375 0.375 0  0.875 0.375 0  0.90625 0.375 0  0.9375 0.375 0  0.96875 0.375 0  1 0.375 0  0 0.40625 0  0.03125 0.40625 0  0.0625 0.40625 0  0.09375 0.40625 0  0.125 0.40625 0  0.15625 0.40625 0  0.1875 0.40625 0  0.21875 0.40625 0  0.25 0.40625 0  0.28125 0.40625 0  0.3125 0.40625 0  0.34375 0.40625 0  0.375 0.40625 0  0.40625 0.40625 0  0.4375 0.40625 0  0.46875 0.40625 0  0.5 0.40625 0  0.53125 0.40625 0  0.5625 0.40625 0  0.59375 0.40625 0  0.625 0.40625 0  0.65625 0.40625 0  0.6875 0.40625 0  0.71875 0.40625 0  0.75 0.40625 0  0.78125 0.40625 0  0.8125 0.40625 0  0.84375 0.40625 0  0.875 0.40625 0  0.90625 0.40625 0  0.9375 0.40625 0  0.96875 0.40625 0  1 0.40625 0  0 0.4375 0  0.03125 0.4375 0  0.0625 0.4375 0  0.09375 0.4375 0  0.125 0.4375 0  0.15625 0.4375 0  0.1875 0.4375 0  0.21875 0.4375 0  0.25 0.4375 0  0.28125 0.4375 0  0.3125 0.4375 0  0.34375 0.4375 0  0.375 0.4375 0  0.40625 0.4375 0  0.4375 0.4375 0  0.46875 0.4375 0  0.5 0.4375 0  0.53125 0.4375 0  0.5625 0.4375 0  0.59375 0.4375 0  0.625 0.4375 0  0.65625 0.4375 0  0.6875 0.4375 0  0.71875 0.4375 0  0.75 0.4375 0  0.78125 0.4375 0  0.8125 0.4375 0  0.84375 0.4375 0  0.875 0.4375 0  0.90625 0.4375 0  0.9375 0.4375 0  0.96875 0.4375 0  1 0.4375 0  0 0.46875 0  0.03125 0.46875 0  0.0625 0.46875 0  0.09375 0.46875 0  0.125 0.46875 0  0.15625 0.46875 0  0.1875 0.46875 0  0.21875 0.46875 0  0.25 0.46875 0  0.28125 0.46875 0  0.3125 0.46875 0  0.34375 0.46875 0  0.375 0.46875 0  0.40625 0.46875 0  0.4375 0.46875 0  0.46875 0.46875 0  0.5 0.46875 0  0.53125 0.46875 0  0.5625 0.46875 0  0.59375 0.46875 0  0.625 0.46875 0  0.65625 0.46875 0  0.6875 0.46875 0  0.71875 0.46875 0  0.75 0.46875 0  0.78125 0.46875 0  0.8125 0.46875 0  0.84375 0.46875 0  0.875 0.46875 0  0.90625 0.46875 0  0.9375 0.46875 0  0.96875 0.46875 0  1 0.46875 0  0 0.5 0  0.03125 0.5 0  0.0625 0.5 0  0.09375 0.5 0  0.125 0.5 0  0.15625 0.5 0  0.1875 0.5 0  0.21875 0.5 0  0.25 0.5 0  0.28125 0.5 0  0.3125 0.5 0  0.34375 0.5 0  0.375 0.5 0  0.40625 0.5 0  0.4375 0.5 0  0.46875 0.5 0  0.5 0.5 0  0.53125 0.5 0  0.5625 0.5 0  0.59375 0.5 0  0.625 0.5 0  0.65625 0.5 0  0.6875 0.5 0  0.71875 0.5 0  0.75 0.5 0  0.78125 0.5 0  0.8125 0.5 0  0.84375 0.5 0  0.875 0.5 0  0.90625 0.5 0  0.9375 0.5 0  0.96875 0.5 0  1 0.5 0  0 0.53125 0  0.03125 0.53125 0  0.0625 0.53125 0  0.09375 0.53125 0  0.125 0.53125 0  0.15625 0.53125 0  0.1875 0.53125 0  0.21875 0.53125 0  0.25 0.53125 0  0.28125 0.53125 0  0.3125 0.53125 0  0.34375 0.53125 0  0.375 0.53125 0  0.40625 0.53125 0  0.4375 0.53125 0  0.46875 0.53125 0  0.5 0.53125 0  0.53125 0.53125 0  0.5625 0.53125 0  0.59375 0.53125 0  0.625 0.53125 0  0.65625 0.53125 0  0.6875 0.53125 0  0.71875 0.53125 0  0.75 0.53125 0  0.78125 0.531
[...]
<PointData  Scalars="u_sol"> 
<DataArray  type="Float64"  Name="u_sol"  format="ascii">-3.1564907004323079e-05  -7.0456612135447072e-05  5.3808070658440451e-04  1.2031687045724092e-03  1.3745125063901438e-03  1.8173916918833299e-03  2.2325474785628826e-03  2.3166704490546804e-03  5.4511136123506308e-03  1.2222350792925918e-02  1.8875129781507006e-02  2.2275844133354667e-02  1.9875191922452053e-02  1.1063981884636845e-02  -1.9352947395404577e-03  -1.5192060466051104e-02  -2.5672644856382324e-02  -3.1667122656064209e-02  -2.9981108652269488e-02  -1.9183593196780875e-02  -1.4498633997542555e-03  1.8155633237429764e-02  3.2984767194492455e-02  3.8372969719636905e-02  3.4138673475344626e-02  2.4408672500692150e-02  1.3072864803775319e-02  4.0038834621249578e-03  4.9676122156183233e-04  -5.3956662139370201e-04  -5.3680680062855989e-04  -3.3972992527035446e-04  2.8072338626471314e-05  -4.0503866325138495e-04  1.9542763685095142e-03  7.6737356322734360e-03  1.2817918707690034e-02  1.5296031905924363e-02  1.5284367751889584e-02  1.5289819586860388e-02  1.4922206758199639e-02  6.8624161991953066e-03  -1.6508938737133164e-02  -5.7999323915144452e-02  -1.1306384875337459e-01  -1.7239108395802424e-01  -2.2655322969478603e-01  -2.6882882958374987e-01  -2.9561147844898317e-01  -3.0479486533580730e-01  -2.9512536034515763e-01  -2.6775673400041888e-01  -2.2421742954859139e-01  -1.6689559268253323e-01  -1.0097720330287949e-01  -3.5046522962952749e-02  2.0028008604170294e-02  5.5826276690939335e-02  6.9777404325111883e-02  6.5542038893446744e-02  4.9819403054096538e-02  3.0277382955112449e-02  1.5446355196577862e-02  6.1593651019992996e-03  1.2916435014320954e-03  -2.6037459793822027e-04  -7.6319221379928209e-04  3.7475739442897433e-03  1.1723753993914053e-02  1.6396601345425872e-02  1.5639003779351585e-02  1.1919851961867598e-02  1.8227858911339097e-03  -2.6456029052604062e-02  -8.0796336008693848e-02  -1.5516998254761075e-01  -2.3365453648470405e-01  -3.0319841866742375e-01  -3.5714320948648026e-01  -3.9447403394497521e-01  -4.1745453111672010e-01  -4.2902814927680893e-01  -4.3147839184547299e-01  -4.2558434291734126e-01  -4.0993843195972895e-01  -3.8265582222249639e-01  -3.4139303035067042e-01  -2.8428805797194368e-01  -2.1274867255682522e-01  -1.3437847256361712e-01  -6.3318453178288700e-02  -1.1940964317131446e-02  1.8261101477688241e-02  3.2007184211700096e-02  3.2170848775509131e-02  2.2154962667203855e-02  1.1537366793221723e-02  3.2914671483932558e-03  -6.0372613312387104e-04  -1.1559151966394760e-03  5.7696245524520625e-03  1.4203199592346182e-02  1.3246172620680143e-02  5.1745203476761762e-03  -1.3145993909775926e-02  -5.7376421571512903e-02  -1.3172855774896114e-01  -2.1968898266867262e-01  -3.0108229626880184e-01  -3.6432709751114462e-01  -4.0736836213297689e-01  -4.3437830728718008e-01  -4.5085123321554332e-01  -4.6076296976842324e-01  -4.6615444317114590e-01  -4.6779981664535336e-01  -4.6622736860580655e-01  -4.6208668560916188e-01  -4.5421730815835337e-01  -4.3914345453374493e-01  -4.1073891518609024e-01  -3.6149019561323270e-01  -2.8730820848044397e-01  -1.9440261450593357e-01  -1.0337193961933445e-01  -3.8590001410263183e-02  -5.1642126876315225e-03  1.0239963084030943e-02  1.5284374244209946e-02  1.0386090620024551e-02  3.4534414625565120e-03  -6.3493678619055537e-04  -1.3703152857350714e-03  7.6282100814817465e-03  1.1415794159730120e-02  7.0762523246217508e-04  -2.2649972944431586e-02  -7.4285261503220540e-02  -1.5642319458854295e-01  -2.4742058629898320e-01  -3.2460270928160373e-01  -3.7729014537124189e-01  -4.0691047020869309e-01  -4.2070344713951480e-01  -4.2546314932330020e-01  -4.2544426818072462e-01  -4.2309088194331729e-01  -4.2011304773926866e-01  -4.1788855696481969e-01  -4.1724632786086951e-01  -4.1843630828594308e-01  -4.2207523723033763e-01  -4.2788975599469281e-01  -4.3239533488004062e-01  -4.2648473370446277e-01  -3.9597276108696244e-01  -3.2896250214529005e-01  -2.2789473068959051e-01  -1.1852638710323442e-01  -4.0068545568875215e-02  -7.0017990369777858e-03  3.3395683695198299e-03  6.1913576325817706e-03  2.3050826804796453e-03  -4.7946062703684283e-04  -1.0246767312616907e-03  6.6530667496204543e-03  -1.0448324310052919e-05  -2.4675236777690922e-02  -7.5631124987902296e-02  -1.5711769234159029e-01  -2.4669319075349963e-01  -3.1883054888331741e-01  -3.6231920815853452e-01  -3.8090023802480999e-01  -3.8434202403358120e-01  -3.8092918464311337e-01  -3.7569857773298992e-01  -3.7131700389302413e-01  -3.6871423040302792e-01  -3.6749869966884768e-01  -3.6668909709554209e-01  -3.6568595698190604e-01  -3.6493063151435884e-01  -3.6565724457405518e-01  -3.7004844955879290e-01  -3.8056263024074927e-01  -3.9665766306822908e-01  -4.0904006381613695e-01  -3.9743888476647771e-01  -3.4083196339670740e-01  -2.3689194969744176e-01  -1.1574531302157851e-01  -3.0142166657803358e-02  -2.2923992467626772e-03  1.9453207146527024e-03  1.2319077518242337e-03  -2.5515419992275728e-04  5.3915636393615373e-04  4.1026997537177168e-04  -1.9791016084281285e-02  -6.5120662734760804e-02  -1.3982149503026084e-01  -2.2578283226092780e-01  -2.9509334204433507e-01  -3.3384129297895904e-01  -3.4625913656082213e-01  -3.4435205338617286e-01  -3.3828224123060807e-01  -3.3379628547804813e-01  -3.3289125187799684e-01  -3.3478973890059732e-01  -3.3752834018220962e-01  -3.3957082473721245e-01  -3.4039576201902655e-01  -3.4008365156512416e-01  -3.3867284750597315e-01  -3.3617491247378611e-01  -3.3314728320811843e-01  -3.3189149276893454e-01  -3.3742247530126274e-01  -3.5430364082719762e-01  -3.7627720723757885e-01  -3.7806089238537871e-01  -3.2857810188745101e-01  -2.2167254504268680e-01  -9.4995982926796452e-02  -1.4067003706211291e-02  1.2648617571210570e-03  1.8245039680536029e-03  -2.7036325855919242e-04  2.4066116539416447e-03  -9.5260865081060013e-03  -4.6428023931489287e-02  -1.1050252878278150e-01  -1.9049941989213620e-01  -2.5946347980577433e-01  -2.9871955263861927e-01  -3.0994141923022528e-01  -3.0643328425484184e-01  -3.0044769442109814e-01  -2.9826016974579372e-01  -3.0065349162750526e-01  -3.0510896641687657e-01  -3.0898973705550653e-01  -3.1143070202825834e-01  -3.1284458547934924e-01  -3.1376325917124276e-01  -3.1444655156761403e-01  -3.1500970676161183e-01  -3.1525376105218783e-01  -3.1436794371478166e-01  -3.1107937428324306e-01  -3.0570256412716623e-01  -3.0409829000217903e-01  -3.1646905951876264e-01  -3.4144845999933210e-01  -3.4904005711254349e-01  -2.9864149656402050e-01  -1.8478363216045593e-01  -5.9822925900719540e-02  1.3051544149813917e-03  1.1314413103417698e-03  -3.2553362974195468e-04  3.7685411535532789e-03  -2.0891822491725349e-02  -7.3745485798378821e-02  -1.4484200671174274e-01  -2.1401786530454411e-01  -2.5827716460731170e-01  -2.7314687515412772e-01  -2.7071139653053716e-01  -2.6537920006750526e-01  -2.6462039745812499e-01  -2.6850718971245069e-01  -2.7337300122597541e-01  -2.7649424719548737e-01  -2.7788186855596941e-01  -2.7858898891319567e-01  -2.7919641532302386e-01  -2.7987050041421296e-01  -2.8068091332614731e-01  -2.8170451772761401e-01  -2.8322066449937683e-01  -2.8546027065198648e-01  -2.8773713328375694e-01  -2.8734548745740779e-01  -2.8152895557330337e-01  -2.7531583002688509e-01  -2.8393063989446904e-01  -3.0960217947384716e-01  -3.1493313808189849e-01  -2.5297813863300828e-01  -1.2937792242481080e-01  -2.0024011838487538e-02  3.9777219163673813e-03  -1.1203042745999653e-03  4.7873854854550207e-03  -3.1194887484602848e-02  -9.2833902945561084e-02  -1.5946689777777356e-01  -2.1091769598082458e-01  -2.3411375098124945e-01  -2.3585643541621248e-01  -2.3142284714548611e-01  -2.3089814700242384e-01  -2.3510854783618851e-01  -2.3993598458125862e-01  -2.4254852979385774e-01  -2.4356249192979509e-01  -2.4447607346993536e-01  -2.4571036591932818e-01  -2.4706139319970510e-01  -2.4829780897225384e-01  -2.4929803176565066e-01  -2.5008557079018268e-01  -2.5075654358806015e-01  -2.5172854555639967e-01  -2.5394631173818472e-01  -2.5776829990727218e-01  -2.5999079788583368e-01  -2.5488650091149345e-01  -2.4670380000556844e-01  -2.5528197627326943e-01  -2.8099356098301193e-01  -2.7384836169216470e-01  -1.8973596501009382e-01  -6.3502293476981234e-02  6.0527688982756440e-03  -1.2731884494901265e-03  5.2699205502609115e-03  -3.7014677611519282e-02  -9.9186825830993072e-02  -1.5490860214400276e-01  -1.8959045993354356e-01  -1.9972797662364641e-01  -1.9778672662386484e-01  -1.9682191262341309e-01  -2.0063757901557971e-01  -2.0565646612227159e-01  -2.0850205937699037e-01  -2.0973255946883668e-01  -2.1117740929894016e-01  -2.1317770216871290e-01  -2.1523478587420095e-01  -2.1705911813816264e-01  -2.1862329641652398e-01  -2.2000754059102617e-01  -2.2125190957500426e-01  -2.2226824482123089e-01  -2.2282170377745797e-01  -2.2296956584440544e-01  -2.2410540698175738e-01  -2.2795210149647099e-01  -2.3111248081446167e-01  -2.2551914021067929e-01  -2.1733735653805319e-01  -2.3037975166742339e-01  -2.5200799831779824e-01  -2.1850171234419719e-01  -1.0823883230944623e-01  -7.8767327221290259e-03  2.7552456792741755e-03  5.3216237505143635e-03  -3.7036407427593218e-02  -9.3532002855334070e-02  -1.3683060393197849e-01  -1.5921682441514090e-01  -1.6345885818021713e-01  -1.6279580358208132e-01  -1.6556621835893853e-01  -1.7075208786730964e-01  -1.7443864668617862e-01  -1.7619380358947301e-01  -1.7796553362401304e-01  -1.8034945086063167e-01  -1.8266521536612607e-01  -1.8457916207878330e-01  -1.8622783983667318e-01  -1.8779740354553770e-01  -1.8936620058245335e-01  -1.9095398054163726e-01  -1.9260444751389885e-01  -1.9424991934885580e-01  -1.9534801446105954e-01  -1.9528455499194716e-01  -1.9565578479061058e-01  -1.9935676753538600e-01  -2.0181547181312806e-01  -1.9393526636459718e-01  -1.8907342031056901e-01  -2.0900447875349254e-01  -2.1330942034280573e-01  -1.3947501915975355e-01  -2.8033391485887547e-02  8.7186046307887420e-03  5.1267820935216625e-03  -3.2071735943867717e-02  -7.9409128845451218e-02  -1.1157072862576962e-01  -1.2622677977932512e-01  -1.2894174498921937e-01  -1.3072180256510613e-01  -1.3539701666527043e-01  -1.4008137402881246e-01  -1.4274323966424896e-01  -1.4471312061061167e-01  -1.4719353024880705e-01  -1.4967561655885969e-01  -1.5168840876755743e-01  -1.5345409401297466e-01  -1.5521464594184431e-01  -1.5698404728940912e-01  -1.5873022368412015e-01  -1.6045444829619460e-01  -1.6216963333516532e-01  -1.6399032488500714e-01  -1.6605909350853484e-01  -1.6770519099021258e-01  -1.6767080526859543e-01  -1.6800552723591872e-01  -1.7195955847283637e-01  -1.7161543288051637e-01  -1.6131347003729296e-01  -1.6577013172579053e-01  -1.8523307767845315e-01  -1.4923233872311686e-01  -4.3592805734756546e-02  1.2570309571377081e-02  4.6163026911858378e-03  -2.3850953224129914e-02  -6.0681851731320818e-02  -8.3768358279313532e-02  -9.3923421255264664e-02  -9.6894748219024385e-02  -1.0039401621682852e-01  -1.0535559784930043e-01  -1.0918843217699468e-01  -1.1158851209679288e-01  -1.1398181214409589e-01  -1.1656239065522046e-01  -1.1875951140570448e-01  -1.2065922621860284e-01  -1.2258724677998466e-01  -1.2456460298697797e-01  -1.2653107840628472e-01  -1.2849835356845746e-01  -1.3048054394321862e-01  -1.3245453187437961e-01  -1.3434706951833467e-01  -1.3625326206596486e-01  -1.3854202958029274e-01  -1.4037695164241346e-01  -1.4022442257661086e-01  -1.4144263907125076e-01  -1.4518678921759695e-01  -1.3937875798177843e-01  -1.3197963267087948e-01  -1.4827820564101374e-01  -1.4087420583557511e-01  -5.3877153298881368e-02  1.3394589869467614e-02  3.9159807805404928e-03  -1.4097190124839586e-02  -4.0181125516118181e-02  -5.6002232555150022e-02  -6.3412096785477406e-02  -6.6900275792888694e-02  -7.1013779876026459e-02  -7.5457567553097099e-02  -7.8656681622922706e-02  -8.1059973170275273e-02  -8.3539100633474417e-02  -8.5886517883623559e-02  -8.7894344172749633e-02  -8.9844164463486115e-02  -9.1863931807186605e-02  -9.3889377861482409e-02  -9.5944440768867795e-02  -9.8084838724953979e-02  -1.0032185806609803e-01  -1.0265272655333500e-01  -1.0504170802025821e-01  -1.0730610768849688e-01  -1.0948759701352419e-01  -1.1208042349743938e-01  -1.1372052333448504e-01  -1.1364129552928572e-01  -1.1675345160535627e-01  -1.1714877795662755e-01  -1.0692974726223138e-01  -1.1309492613656244e-01  -1.2181522591164430e-01  -5.7505923015450461e-02  1.1989165812923528e-02  2.8650020422740763e-03  -4.1798540859925388e-03  -1.9473087059576785e-02  -2.9295911920627259e-02  -3.4663137360082856e-02  -3.8339976913562786e-02  -4.2253432415299372e-02  -4.5909990895058067e-02  -4.8633363968982234e-02  -5.0943994931532378e-02  -5.3219867270787931e-02  -5.5283108055914632e-02  -5.7173438318740992e-02  -5.9094713967675808e-02  -6.1066660693687790e-02  -6.3094012029990751e-02  -6.5246131706390945e-02  -6.7557603423585064e-02  -7.0035582277701527e-02  -7.2671952720253868e-02  -7.5456042042794519e-02  -7.8371955329980272e-02  -8.1146202414357882e-02  -8.3873714574095259e-02  -8.6863333260008779e-02  -8.8003989484430667e-02  -8.9426266379800390e-02  -9.3279447353460110e-02  -8.6515727784034921e-02  -8.3963733614152325e-02  -9.8862828925633695e-02  -5.6031946141070245e-02  9.7626697959338309e-03  6.3898152367412311e-04  5.7131274038421127e-03  5.8590450785162300e-04  -3.6070642247153992e-03  -7.2282028332420999e-03  -1.0694106585967440e-02  -1.3987856302659377e-02  -1.6770958044962488e-02  -1.9035818026769229e-02  -2.1084086482163644e-02  -2.3015828033611265e-02  -2.4783528537767007e-02  -2.6504693974821095e-02  -2.8288153377404368e-02  -3.0161108359623556e-02  -3.2184586199341912e-02  -3.4421576092915039e-02  -3.6898805563063214e-02  -3.9633208171946585e-02  -4.2628491836688855e-02  -4.5846821957990190e-02  -4.9255711754014574e-02  -5.2848466203323743e-02  -5.6280962518232037e-02  -5.9881788590514282e-02  -6.3008236112299346e-02  -6.4360606136932536e-02  -6.8909388602708080e-02  -6.7592006033290894e-02  -6.1061283450539745e-02  -7.6394277192273763e-02  -5.1187477493209912e-02  7.5822373881172427e-03  -1.6688371489854972e-03  1.5291200735496856e-02  2.0117841917876144e-02  2.1205231856438238e-02  1.9615979425991817e-02  1.6376951220347873e-02  1.3901991722119492e-02  1.2011989655898442e-02  1.0280486439203613e-02  8.5909797738413316e-03  7.0876872772956461e-03  5.6694954331642303e-03  4.1980105922737963e-03  2.6291165509856637e-03  8.9972480351147694e-04  -1.0769625613504734e-03  -3.3528574720334951e-03  -5.9676855062710714e-03  -8.9530004308378663e-03  -1.2321244023339856e-02  -1.6061925545606134e-02  -2.0107297137978250e-02  -2.4415876048296776e-02  -2.8913072279083591e-02  -3.3320802479447832e-02  -3.7966964736636501e-02  -4.1031478902038614e-02  -4.5420085648156604e-02  -4.8862309920192235e-02  -4.2849206246718369e-02  -5.6270768525589328e-02  -4.4652047867288457e-02  5.7738204306304816e-03  -3.2814091431745511e-03  2.3518721237857660e-02  3.9424766235298433e-02  4.5278349721562673e-02  4.6392133199701223e-02  4.3309785882238098e-02  4.1498870057791550e-02  4.0530533488341854e-02  3.9422112972196430e-02  3.8158160330237084e-02  3.7113547192238146e-02  3.6141215429972583e-02  3.5006472857889229e-02  3.3714423566595549e-02  3.2199405980412189e-02  3.0339129725562537e-02  2.8068484577723245e-02  2.5340761739560048e-02  2.2109733235596011e-02  1.8352091437893101e-02  1.4084305691563295e-02  9.3150456475273452e-03  4.1290925282146300e-03  -1.4158214427179240e-03  -7.1351902491253814e-03  -1.2989330218072744e-02  -1.8439668847126486e-02  -2.3506562657881369e-02  -3.0078160173921266e-02  -2.7615528952885580e-02  -3.8971904190355081e-02  -3.7516215557604177e-02  4.3622824066326706e-03  -4.7913141734081460e-03  2.9421531798083597e-02  5.7875585042840641e-02  6.8967544653548568e-02  7.3153308723974894e-02  7.0669769756391110e-02  6.8900517655268112e-02  6.8837849863100334e-02  6.8467772739204943e-02  6.7713878007757022e-02  6.7124684755510658e-02  6.6672374600194415e-02  6.6005655642343689e-02  6.5060306446400332e-02  6.3821969857619634e-02  6.2159027003624134e-02  5.9959421811116138e-02  5.7154101700911564e-02  5.3691054431730847e-02  4.9544645966716580e-02  4.4712547642479609e-02  3.9188408636303254e-02  3.3007708334566253e-02  2.6307484607553611e-02  1.9115441356968063e-02  1.1729979001507376e-02  4.1048052227256092e-03  -3.0872710138846382e-03  -1.1376806392772035e-02  -1.4070652064275919e-02  -2.4281323080937348e-02  -3.0358212193488346e-02  3.3210736128603180e-03  -6.0610202253897133e-03  3.2149531788187878e-02  7.4040866274162925e-02  9.2268984976061841e-02  9.9760328415353219e-02  9.8726445820886258e-02  9.6402606463588822e-02  9.6815091817709836e-02  9.7416429288878489e-02  9.7283538283681775e-02  9.7168742377472139e-02  9.7270262343504207e-02  9.7218800140573089e-02  9.6766178819887722e-02  9.5877570185337629e-02  9.4473494007244752e-02  9.2417919585161129e-02  8.9604760608248152e-02  8.5962896336803596e-02  8.1457551256959249e-02  7.6038831954876596e-02  6.9679566623629105e-02  6.2462802283047070e-02  5.4457835459145766e-02  4.5722159728792192e-02  3.6443197434732684e-02  2.6701372723154596e-02  1.6613690958091325e-02  6.8405576855760002e-03  -1.1510042483281252e-03  -1.1914119572321436e-02  -2.3417163764328511e-02  2.5891295856805656e-03  -6.7270006554146604e-03  3.1188374594582201e-02  8.5639064527812947e-02  1.1432488808134782e-01  1.2592456782492673e-01  1.2730770493976509e-01  1.2456480659884303e-01  1.2445853510543872e-01  1.2608093586710159e-01  1.2692995811795180e-01  1.2735507297949325e-01  1.2800192068124278e-01  1.2866326587070484e-01  1.2891974381747134e-01  1.2856829908969389e-01  1.2752574549831011e-01  1.2568764404048249e-01  1.2292938367445093e-01  1.1916181783291677e-01  1.1429298167438184e-01  1.0824545701812321e-01  1.0104033732746960e-01  9.2747830886592872e-02  8.3345226367800562e-02  7.2894918506025974e-02  6.1609784239919176e-02  4.9331054014311010e-02  3.6452034606138085e-02  2.4250853598516614e-02  1.2035434306560167e-02  -1.8125556604393950e-03  -1.6785820251976401e-02  1.9495127508524748e-03  -6.3117890978078434e-03  2.6399693816893690e-02  8.9913985200341481e-02  1.3268811460821689e-01  1.5102384437350266e-01  1.5575005343809312e-01  1.5364463362825795e-01  1.5223190848847071e-01  1.5410299806687311e-01  1.5642468078457406e-01  1.5785674884025003e-01  1.5907744766861187e-01  1.6039451384424380e-01  1.6146133140440386e-01  1.6187546740924375e-01  1.6140848579595055e-01  1.5992356348501516e-01  1.5730497546017277e-01  1.5342514148835895e-01  1.4819538434398394e-01  1.4157130063275911e-01  1.3358787435448002e-01  1.2417745562941426e-01  1.1323974058055597e-01  1.0102236692307298e-01  8.7518640815009083e-02  7.2359752170720812e-02  5.6640352043471648e-02  4.1522265835282200e-02  2.5400196137919568e-02  6.3210976078404363e-03  -1.0765703593239835e-02  1.2989819769595890e-03  -4.7662917217152047e-03  1.8663526635254297e-02  8.4467032484156046e-02  1.4332112635502339e-01  1.7298045668157333e-01  1.8287856317649209e-01  1.8301182670967481e-01  1.8069600926887008e-01  1.8143248954263180e-01  1.8482013262388450e-01  1.8811329114186395e-01  1.9057747899928859e-01  1.9267074822971272e-01  1.9448830502403383e-01  1.9571000756125043e-01  1.9597409684734327e-01  1.9503131769239113e-01  1.9270712526612158e-01  1.8889395866018482e-01  1.8348491564023325e-01  1.7643730712674932e-01  1.6767327860180092e-01  1.5698802635867715e-01  1.4452804482868611e-01  1.3055527888654850e-01  1.1442000850789213e-01  9.6127798832475325e-02  7.7635628624046146e-02  5.9439500376728883e-02  3.8538237006970656e-02  1.2856041439012898e-02  -6.0556491977119646e-03  7.8368568862100885e-04  -2.3670733309064376e-03  9.2671184130503383e-03  6.9082634509135529e-02  1.4129575250228865e-01  1.8790356801372335e-01  2.0726307902161897e-01  2.1164999544275032e-01  2.1039417275117211e-01  2.0980123809695397e-01  2.1274112387201283e-01  2.1770565979481382e-01  2.2243669012172018e-01  2.2622557357531578e-01  2.2917227923286976e-01  2.3125965264616261e-01  2.3226099171484252e-01  2.318984