<?xml version="1.0"?>
<VTKFile type="UnstructuredGrid"  version="0.1"  >
<UnstructuredGrid>
<Piece  NumberOfPoints="1089" NumberOfCells="1024">
<Points>
<DataArray  type="Float64"  NumberOfComponents="3"  format="ascii">0 0 0  0.03125 0 0  0.0625 0 0  0.09375 0 0  0.125 0 0  0.15625 0 0  0.1875 0 0  0.21875 0 0  0.25 0 0  0.28125 0 0  0.3125 0 0  0.34375 0 0  0.375 0 0  0.40625 0 0  0.4375 0 0  0.46875 0 0  0.5 0 0  0.53125 0 0  0.5625 0 0  0.59375 0 0  0.625 0 0  0.65625 0 0  0.6875 0 0  0.71875 0 0  0.75 0 0  0.78125 0 0  0.8125 0 0  0.84375 0 0  0.875 0 0  0.90625 0 0  0.9375 0 0  0.96875 0 0  1 0 0  0 0.03125 0  0.03125 0.03125 0  0.0625 0.03125 0  0.09375 0.03125 0  0.125 0.03125 0  0.15625 0.03125 0  0.1875 0.03125 0  0.21875 0.03125 0  0.25 0.03125 0  0.28125 0.03125 0  0.3125 0.03125 0  0.34375 0.03125 0  0.375 0.03125 0  0.40625 0.03125 0  0.4375 0.03125 0  0.46875 0.03125 0  0.5 0.03125 0  0.53125 0.03125 0  0.5625 0.03125 0  0.59375 0.03125 0  0.625 0.03125 0  0.65625 0.03125 0  0.6875 0.03125 0  0.71875 0.03125 0  0.75 0.03125 0  0.78125 0.03125 0  0.8125 0.03125 0  0.84375 0.03125 0  0.875 0.03125 0  0.90625 0.03125 0  0.9375 0.03125 0  0.96875 0.03125 0  1 0.03125 0  0 0.0625 0  0.03125 0.0625 0  0.0625 0.0625 0  0.09375 0.0625 0  0.125 0.0625 0  0.15625 0.0625 0  0.1875 0.0625 0  0.21875 0.0625 0  0.25 0.0625 0  0.28125 0.0625 0  0.3125 0.0625 0  0.34375 0.0625 0  0.375 0.0625 0  0.40625 0.0625 0  0.4375 0.0625 0  0.46875 0.0625 0  0.5 0.0625 0  0.53125 0.0625 0  0.5625 0.0625 0  0.59375 0.0625 0  0.625 0.0625 0  0.65625 0.0625 0  0.6875 0.0625 0  0.71875 0.0625 0  0.75 0.0625 0  0.78125 0.0625 0  0.8125 0.0625 0  0.84375 0.0625 0  0.875 0.0625 0  0.90625 0.0625 0  0.9375 0.0625 0  0.96875 0.0625 0  1 0.0625 0  0 0.09375 0  0.03125 0.09375 0  0.0625 0.09375 0  0.09375 0.09375 0  0.125 0.09375 0  0.15625 0.09375 0  0.1875 0.09375 0  0.21875 0.09375 0  0.25 0.09375 0  0.28125 0.09375 0  0.3125 0.09375 0  0.34375 0.09375 0  0.375 0.09375 0  0.40625 0.09375 0  0.4375 0.09375 0  0.46875 0.09375 0  0.5 0.09375 0  0.53125 0.09375 0  0.5625 0.09375 0  0.59375 0.09375 0  0.625 0.09375 0  0.65625 0.09375 0  0.6875 0.09375 0  0.71875 0.09375 0  0.75 0.09375 0  0.78125 0.09375 0  0.8125 0.09375 0  0.84375 0.09375 0  0.875 0.09375 0  0.90625 0.09375 0  0.9375 0.09375 0  0.96875 0.09375 0  1 0.09375 0  0 0.125 0  0.03125 0.125 0  0.0625 0.125 0  0.09375 0.125 0  0.125 0.125 0  0.15625 0.125 0  0.1875 0.125 0  0.21875 0.125 0  0.25 0.125 0  0.28125 0.125 0  0.3125 0.125 0  0.34375 0.125 0  0.375 0.125 0  0.40625 0.125 0  0.4375 0.125 0  0.46875 0.125 0  0.5 0.125 0  0.53125 0.125 0  0.5625 0.125 0  0.59375 0.125 0  0.625 0.125 0  0.65625 0.125 0  0.6875 0.125 0  0.71875 0.125 0  0.75 0.125 0  0.78125 0.125 0  0.8125 0.125 0  0.84375 0.125 0  0.875 0.125 0  0.90625 0.125 0  0.9375 0.125 0  0.96875 0.125 0  1 0.125 0  0 0.15625 0  0.03125 0.15625 0  0.0625 0.15625 0  0.09375 0.15625 0  0.125 0.15625 0  0.15625 0.15625 0  0.1875 0.15625 0  0.21875 0.15625 0  0.25 0.15625 0  0.28125 0.15625 0  0.3125 0.15625 0  0.34375 0.15625 0  0.375 0.15625 0  0.40625 0.15625 0  0.4375 0.15625 0  0.46875 0.15625 0  0.5 0.15625 0  0.53125 0.15625 0  0.5625 0.15625 0  0.59375 0.15625 0  0.625 0.15625 0  0.65625 0.15625 0  0.6875 0.15625 0  0.71875 0.15625 0  0.75 0.15625 0  0.78125 0.15625 0  0.8125 0.15625 0  0.84375 0.15625 0  0.875 0.15625 0  0.90625 0.15625 0  0.9375 0.15625 0  0.96875 0.15625 0  1 0.15625 0  0 0.1875 0  0.03125 0.1875 0  0.0625 0.1875 0  0.09375 0.1875 0  0.125 0.1875 0  0.15625 0.1875 0  0.1875 0.1875 0  0.21875 0.1875 0  0.25 0.1875 0  0.28125 0.1875 0  0.3125 0.1875 0  0.34375 0.1875 0  0.375 0.1875 0  0.40625 0.1875 0  0.4375 0.1875 0  0.46875 0.1875 0  0.5 0.1875 0  0.53125 0.1875 0  0.5625 0.1875 0  0.59375 0.1875 0  0.625 0.1875 0  0.65625 0.1875 0  0.6875 0.1875 0  0.71875 0.1875 0  0.75 0.1875 0  0.78125 0.1875 0  0.8125 0.1875 0  0.84375 0.1875 0  0.875 0.1875 0  0.90625 0.1875 0  0.9375 0.1875 0  0.96875 0.1875 0  1 0.1875 0  0 0.21875 0  0.03125 0.21875 0  0.0625 0.21875 0  0.09375 0.21875 0  0.125 0.21875 0  0.15625 0.21875 0  0.1875 0.21875 0  0.21875 0.21875 0  0.25 0.21875 0  0.28125 0.21875 0  0.3125 0.21875 0  0.34375 0.21875 0  0.375 0.21875 0  0.40625 0.21875 0  0.4375 0.21875 0  0.46875 0.21875 0  0.5 0.21875 0  0.53125 0.21875 0  0.5625 0.21875 0  0.59375 0.21875 0  0.625 0.21875 0  0.65625 0.21875 0  0.6875 0.21875 0  0.71875 0.21875 0  0.75 0.21875 0  0.78125 0.21875 0  0.8125 0.21875 0  0.84375 0.21875 0  0.875 0.21875 0  0.90625 0.21875 0  0.9375 0.21875 0  0.96875 0.21875 0  1 0.21875 0  0 0.25 0  0.03125 0.25 0  0.0625 0.25 0  0.09375 0.25 0  0.125 0.25 0  0.15625 0.25 0  0.1875 0.25 0  0.21875 0.25 0  0.25 0.25 0  0.28125 0.25 0  0.3125 0.25 0  0.34375 0.25 0  0.375 0.25 0  0.40625 0.25 0  0.4375 0.25 0  0.46875 0.25 0  0.5 0.25 0  0.53125 0.25 0  0.5625 0.25 0  0.59375 0.25 0  0.625 0.25 0  0.65625 0.25 0  0.6875 0.25 0  0.71875 0.25 0  0.75 0.25 0  0.78125 0.25 0  0.8125 0.25 0  0.84375 0.25 0  0.875 0.25 0  0.90625 0.25 0  0.9375 0.25 0  0.96875 0.25 0  1 0.25 0  0 0.28125 0  0.03125 0.28125 0  0.0625 0.28125 0  0.09375 0.28125 0  0.125 0.28125 0  0.15625 0.28125 0  0.1875 0.28125 0  0.21875 0.28125 0  0.25 0.28125 0  0.28125 0.28125 0  0.3125 0.28125 0  0.34375 0.28125 0  0.375 0.28125 0  0.40625 0.28125 0  0.4375 0.28125 0  0.46875 0.28125 0  0.5 0.28125 0  0.53125 0.28125 0  0.5625 0.28125 0  0.59375 0.28125 0  0.625 0.28125 0  0.65625 0.28125 0  0.6875 0.28125 0  0.71875 0.28125 0  0.75 0.28125 0  0.78125 0.28125 0  0.8125 0.28125 0  0.84375 0.28125 0  0.875 0.28125 0  0.90625 0.28125 0  0.9375 0.28125 0  0.96875 0.28125 0  1 0.28125 0  0 0.3125 0  0.03125 0.3125 0  0.0625 0.3125 0  0.09375 0.3125 0  0.125 0.3125 0  0.15625 0.3125 0  0.1875 0.3125 0  0.21875 0.3125 0  0.25 0.3125 0  0.28125 0.3125 0  0.3125 0.3125 0  0.34375 0.3125 0  0.375 0.3125 0  0.40625 0.3125 0  0.4375 0.3125 0  0.46875 0.3125 0  0.5 0.3125 0  0.53125 0.3125 0  0.5625 0.3125 0  0.59375 0.3125 0  0.625 0.3125 0  0.65625 0.3125 0  0.6875 0.3125 0  0.71875 0.3125 0  0.75 0.3125 0  0.78125 0.3125 0  0.8125 0.3125 0  0.84375 0.3125 0  0.875 0.3125 0  0.90625 0.3125 0  0.9375 0.3125 0  0.96875 0.3125 0  1 0.3125 0  0 0.34375 0  0.03125 0.34375 0  0.0625 0.34375 0  0.09375 0.34375 0  0.125 0.34375 0  0.15625 0.34375 0  0.1875 0.34375 0  0.21875 0.34375 0  0.25 0.34375 0  0.28125 0.34375 0  0.3125 0.34375 0  0.34375 0.34375 0  0.375 0.34375 0  0.40625 0.34375 0  0.4375 0.34375 0  0.46875 0.34375 0  0.5 0.34375 0  0.53125 0.34375 0  0.5625 0.34375 0  0.59375 0.34375 0  0.625 0.34375 0  0.65625 0.34375 0  0.6875 0.34375 0  0.71875 0.34375 0  0.75 0.34375 0  0.78125 0.34375 0  0.8125 0.34375 0  0.84375 0.34375 0  0.875 0.34375 0  0.90625 0.34375 0  0.9375 0.34375 0  0.96875 0.34375 0  1 0.34375 0  0 0.375 0  0.03125 0.375 0  0.0625 0.375 0  0.09375 0.375 0  0.125 0.375 0  0.15625 0.375 0  0.1875 0.375 0  0.21875 0.375 0  0.25 0.375 0  0.28125 0.375 0  0.3125 0.375 0  0.34375 0.375 0  0.375 0.375 0  0.40625 0.375 0  0.4375 0.375 0  0.46875 0.375 0  0.5 0.375 0  0.53125 0.375 0  0.5625 0.375 0  0.59375 0.375 0  0.625 0.375 0  0.65625 0.375 0  0.6875 0.375 0  0.71875 0.375 0  0.75 0.375 0  0.78125 0.375 0  0.8125 0.375 0  0.84375 0.375 0  0.875 0.375 0  0.90625 0.375 0  0.9375 0.375 0  0.96875 0.375 0  1 0.375 0  0 0.40625 0  0.03125 0.40625 0  0.0625 0.40625 0  0.09375 0.40625 0  0.125 0.40625 0  0.15625 0.40625 0  0.1875 0.40625 0  0.21875 0.40625 0  0.25 0.40625 0  0.28125 0.40625 0  0.3125 0.40625 0  0.34375 0.40625 0  0.375 0.40625 0  0.40625 0.40625 0  0.4375 0.40625 0  0.46875 0.40625 0  0.5 0.40625 0  0.53125 0.40625 0  0.5625 0.40625 0  0.59375 0.40625 0  0.625 0.40625 0  0.65625 0.40625 0  0.6875 0.40625 0  0.71875 0.40625 0  0.75 0.40625 0  0.78125 0.40625 0  0.8125 0.40625 0  0.84375 0.40625 0  0.875 0.40625 0  0.90625 0.40625 0  0.9375 0.40625 0  0.96875 0.40625 0  1 0.40625 0  0 0.4375 0  0.03125 0.4375 0  0.0625 0.4375 0  0.09375 0.4375 0  0.125 0.4375 0  0.15625 0.4375 0  0.1875 0.4375 0  0.21875 0.4375 0  0.25 0.4375 0  0.28125 0.4375 0  0.3125 0.4375 0  0.34375 0.4375 0  0.375 0.4375 0  0.40625 0.4375 0  0.4375 0.4375 0  0.46875 0.4375 0  0.5 0.4375 0  0.53125 0.4375 0  0.5625 0.4375 0  0.59375 0.4375 0  0.625 0.4375 0  0.65625 0.4375 0  0.6875 0.4375 0  0.71875 0.4375 0  0.75 0.4375 0  0.78125 0.4375 0  0.8125 0.4375 0  0.84375 0.4375 0  0.875 0.4375 0  0.90625 0.4375 0  0.9375 0.4375 0  0.96875 0.4375 0  1 0.4375 0  0 0.46875 0  0.03125 0.46875 0  0.0625 0.46875 0  0.09375 0.46875 0  0.125 0.46875 0  0.15625 0.46875 0  0.1875 0.46875 0  0.21875 0.46875 0  0.25 0.46875 0  0.28125 0.46875 0  0.3125 0.46875 0  0.34375 0.46875 0  0.375 0.46875 0  0.40625 0.46875 0  0.4375 0.46875 0  0.46875 0.46875 0  0.5 0.46875 0  0.53125 0.46875 0  0.5625 0.46875 0  0.59375 0.46875 0  0.625 0.46875 0  0.65625 0.46875 0  0.6875 0.46875 0  0.71875 0.46875 0  0.75 0.46875 0  0.78125 0.46875 0  0.8125 0.46875 0  0.84375 0.46875 0  0.875 0.46875 0  0.90625 0.46875 0  0.9375 0.46875 0  0.96875 0.46875 0  1 0.46875 0  0 0.5 0  0.03125 0.5 0  0.0625 0.5 0  0.09375 0.5 0  0.125 0.5 0  0.15625 0.5 0  0.1875 0.5 0  0.21875 0.5 0  0.25 0.5 0  0.28125 0.5 0  0.3125 0.5 0  0.34375 0.5 0  0.375 0.5 0  0.40625 0.5 0  0.4375 0.5 0  0.46875 0.5 0  0.5 0.5 0  0.53125 0.5 0  0.5625 0.5 0  0.59375 0.5 0  0.625 0.5 0  0.65625 0.5 0  0.6875 0.5 0  0.71875 0.5 0  0.75 0.5 0  0.78125 0.5 0  0.8125 0.5 0  0.84375 0.5 0  0.875 0.5 0  0.90625 0.5 0  0.9375 0.5 0  0.96875 0.5 0  1 0.5 0  0 0.53125 0  0.03125 0.53125 0  0.0625 0.53125 0  0.09375 0.53125 0  0.125 0.53125 0  0.15625 0.53125 0  0.1875 0.53125 0  0.21875 0.53125 0  0.25 0.53125 0  0.28125 0.53125 0  0.3125 0.53125 0  0.34375 0.53125 0  0.375 0.53125 0  0.40625 0.53125 0  0.4375 0.53125 0  0.46875 0.53125 0  0.5 0.53125 0  0.53125 0.53125 0  0.5625 0.53125 0  0.59375 0.53125 0  0.625 0.53125 0  0.65625 0.53125 0  0.6875 0.53125 0  0.71875 0.53125 0  0.75 0.53125 0  0.78125 0.531
[...]
<PointData  Scalars="v_sol"> 
<DataArray  type="Float64"  Name="v_sol"  format="ascii">9.1343235609058016e-06  4.0501679226781983e-04  5.8026652093612970e-04  4.1070327366046587e-04  1.4756712124010127e-04  5.9491546884626916e-05  1.0572696032014824e-04  1.6739515825224161e-04  -2.3819714486258839e-04  -1.9612483981049180e-03  -4.4430629080114224e-03  -6.1810510767204181e-03  -6.4847476839691902e-03  -5.5356333317766078e-03  -3.9040486120498954e-03  -1.8846398526065817e-03  7.7255575135986643e-04  3.0222635000615589e-03  4.2064337122474701e-03  5.0864883093333993e-03  5.6887979277668917e-03  5.9700958188380476e-03  5.6297475533629649e-03  4.6032049608749322e-03  2.8187079504820908e-03  -2.3875050079219079e-04  -2.2848909940356489e-03  -2.4672044115298919e-03  -2.0382816570771820e-03  -1.1829533133180545e-03  -6.0231012406314517e-04  -2.4011864252068896e-04  1.6217263536669779e-05  1.9538197937270623e-04  -2.1398599069304323e-03  -3.2045943281236999e-03  -2.0590382791264676e-03  -6.4386228998334239e-04  -3.9799924680944377e-04  -4.4679810424749544e-04  -4.1548761477016417e-04  9.5260741171858615e-04  7.5805688319787344e-03  1.7605079814020250e-02  2.6062387608559730e-02  3.0758201811982723e-02  3.0555463130396504e-02  2.5519704712565445e-02  1.6502893963752804e-02  4.8133613631925736e-03  -8.0229405647756213e-03  -2.1084106297637038e-02  -3.2933423962407074e-02  -4.0714769305375660e-02  -4.1557345351138017e-02  -3.4034187368305956e-02  -2.0427964418183241e-02  -5.8271443060787251e-03  6.7743800110566200e-03  1.4052340959057174e-02  1.3699124577817995e-02  9.6081275485307531e-03  5.5521576121686685e-03  2.8368279661889016e-03  1.0508680328397500e-03  -2.2453000206325220e-04  -5.5272143552038653e-05  -8.2604268328174014e-03  -1.0049779994546626e-02  -5.4615135819236840e-03  -2.7222177112654517e-04  2.1252657251172114e-03  5.1385374319835456e-03  1.7990079664834950e-02  4.1484564737589012e-02  6.6759376794063213e-02  8.5133734190126001e-02  9.1545681873768367e-02  8.5988533934438866e-02  7.1359823202822054e-02  5.1084686134341334e-02  2.7825143395141059e-02  2.9321660807532803e-03  -2.3505180490492664e-02  -5.0911692928874139e-02  -7.7300786576011360e-02  -9.9062617097844322e-02  -1.1046737800800063e-01  -1.0564062183543470e-01  -8.2782509082390529e-02  -4.8496545488446438e-02  -1.5969751072241464e-02  7.4842223436479352e-03  2.1360384611593616e-02  2.3844817122542539e-02  1.8350262855356122e-02  1.1648214274003329e-02  6.0711465186103373e-03  1.6403988478511957e-04  -9.2803709405965063e-04  -1.7306524941706869e-02  -1.6238103410516395e-02  -3.9642839519521342e-03  6.0125136400939454e-03  1.6670681864156912e-02  4.2968282137264099e-02  8.3662145915670449e-02  1.2279238417881486e-01  1.4693644736614631e-01  1.5169080429937348e-01  1.4028973285699900e-01  1.1868883650037902e-01  9.2101557117817312e-02  6.3427756726385814e-02  3.3591819883243397e-02  2.5360717997973039e-03  -2.9856088723130211e-02  -6.3932083762015313e-02  -9.9604774378172736e-02  -1.3473184938816329e-01  -1.6397118092800353e-01  -1.7832263372441151e-01  -1.6809275212281760e-01  -1.3001087014682661e-01  -7.4631305323947489e-02  -2.4756758036624884e-02  5.1527537426159647e-03  2.0776391897760829e-02  2.5048137444829286e-02  2.0118702061427483e-02  1.2953975442068732e-02  9.2846502446088553e-04  -3.2366527745166726e-03  -2.8244739638036614e-02  -1.6482577178563683e-02  6.0602258551257400e-03  2.7262749649972447e-02  6.5707083515267967e-02  1.2178245249616125e-01  1.7307260063654925e-01  2.0180372176463982e-01  2.0452425883961142e-01  1.8789992409339162e-01  1.6080445172601709e-01  1.2957960591018752e-01  9.7292529028313160e-02  6.5082078061138651e-02  3.3247194198495374e-02  1.5933054700692847e-03  -3.0668195022841259e-02  -6.4564308761314360e-02  -1.0098275815501724e-01  -1.4037552972270637e-01  -1.8133688879255008e-01  -2.1796260403099885e-01  -2.3797250084204569e-01  -2.2614659869691359e-01  -1.7519396956796496e-01  -9.8005179298371617e-02  -2.8555742730845109e-02  7.3499290820164247e-03  2.1264044540610177e-02  2.4596986509062811e-02  1.8343409456324095e-02  1.6867359892702653e-03  -8.1402128965919422e-03  -3.6020578573674952e-02  -6.3509059832795962e-03  3.0505587737916923e-02  7.8978339475264420e-02  1.4812614194030577e-01  2.1212655668151434e-01  2.4725995404660384e-01  2.4930282425329786e-01  2.2824870934550567e-01  1.9626883332395512e-01  1.6119820313294742e-01  1.2651860789534389e-01  9.3387426411207328e-02  6.1789798722358180e-02  3.1052657788111927e-02  3.1686395650454144e-04  -3.0979608709738184e-02  -6.3056062845579353e-02  -9.6268062697789744e-02  -1.3156107966905936e-01  -1.7062516877082404e-01  -2.1445315810121024e-01  -2.5845547177434391e-01  -2.8701638351002495e-01  -2.7671941730449767e-01  -2.1347880787271395e-01  -1.1279121664349397e-01  -2.4097160434812588e-02  1.4292905169615755e-02  2.3674154891586707e-02  2.2092028175349047e-02  1.6071927887592625e-03  -1.3951613300688873e-02  -3.4350785720495325e-02  1.7505968692962341e-02  7.8414768566675827e-02  1.5772194530394265e-01  2.3629824400613894e-01  2.8250699470857038e-01  2.8775468908298207e-01  2.6435408845821295e-01  2.2879817904316493e-01  1.9142114825961387e-01  1.5627316233007169e-01  1.2387924170627601e-01  9.3105982490629707e-02  6.2581453046410357e-02  3.1570627033257768e-02  -2.9888997369392440e-05  -3.2160662859896466e-02  -6.4713583827505416e-02  -9.7388785224394911e-02  -1.2980831914125116e-01  -1.6234483877102751e-01  -1.9783599156106627e-01  -2.4117633320978460e-01  -2.9120155207773424e-01  -3.2848151375443346e-01  -3.1796512553141965e-01  -2.3749042475133808e-01  -1.0954656118416109e-01  -8.3350323623204402e-03  2.3455594886691022e-02  2.2610503690669585e-02  3.1052286417569477e-03  -1.7652584857595452e-02  -1.8150431424473857e-02  5.8731441526544734e-02  1.4797004075593809e-01  2.4155996588566100e-01  3.0554466588314427e-01  3.2098026908566252e-01  2.9904319878009944e-01  2.6146457435103715e-01  2.2284381034722070e-01  1.8825857426077305e-01  1.5720100460425362e-01  1.2721011206575644e-01  9.6568690774093996e-02  6.5052335792617821e-02  3.3001583328310019e-02  5.7576604685783035e-04  -3.2226438097988669e-02  -6.5509136772891052e-02  -9.9287213485634143e-02  -1.3309449524030154e-01  -1.6570420158106883e-01  -1.9599645990581724e-01  -2.2688178767904513e-01  -2.6792639331801904e-01  -3.2291287095650817e-01  -3.6636637152105023e-01  -3.4728746318383219e-01  -2.3817395298274313e-01  -8.0281104285124846e-02  1.4893308205031878e-02  2.6117734396455677e-02  3.2150735530648900e-03  -1.6351026585937751e-02  1.4942736553134618e-02  1.1647536001061259e-01  2.2454078588358739e-01  3.1135347267157970e-01  3.4710560309462601e-01  3.3336078900587512e-01  2.9571644511204531e-01  2.5584672866788788e-01  2.2154229787358093e-01  1.9149016711554365e-01  1.6183840366033936e-01  1.3066686229462413e-01  9.8476382930002618e-02  6.6104577712519208e-02  3.3749065620063717e-02  1.3079929654993038e-03  -3.1371703913660377e-02  -6.4423824433468335e-02  -9.8012533244818387e-02  -1.3239861424855662e-01  -1.6746397944298311e-01  -2.0141224428005064e-01  -2.3093075719375333e-01  -2.5801910406769135e-01  -2.9773494088211244e-01  -3.5846308984204017e-01  -4.0199447959487916e-01  -3.5755577503238239e-01  -2.0306629282342523e-01  -2.7040285668297834e-02  3.3270753741273910e-02  5.4942610194295310e-04  -8.2108763475903374e-03  6.3411033586170285e-02  1.8229128961977739e-01  2.9397228410407750e-01  3.5960614572601790e-01  3.6555986375934474e-01  3.3231382609465060e-01  2.9063290672705616e-01  2.5531045660412666e-01  2.2565360635220030e-01  1.9627196662586952e-01  1.6462142519518144e-01  1.3183788431901045e-01  9.9266310008944508e-02  6.6976709977445203e-02  3.4682827249263963e-02  2.2108544229539327e-03  -3.0532609640199958e-02  -6.3521699919758937e-02  -9.6683293307633700e-02  -1.3009593655606064e-01  -1.6438209548377747e-01  -2.0034603609497609e-01  -2.3603438600446511e-01  -2.6537369384900827e-01  -2.8980235716597186e-01  -3.3220185786307049e-01  -4.0051878958472492e-01  -4.2985821939013896e-01  -3.3274100631193243e-01  -1.2004450434223154e-01  2.7452121524055680e-02  8.3408235883275193e-03  6.1765933728186555e-03  1.2126695225608800e-01  2.4650816262494235e-01  3.4921287384315097e-01  3.8849362871979692e-01  3.7061402328313781e-01  3.2849055605326410e-01  2.8982457962833458e-01  2.5944209684119518e-01  2.3057676339168565e-01  1.9893026606033468e-01  1.6572924881923179e-01  1.3305677189671450e-01  1.0092405581012505e-01  6.8724343517028108e-02  3.6265498168497584e-02  3.5334056311529219e-03  -2.9438362053261516e-02  -6.2655235382960181e-02  -9.6096420233018093e-02  -1.2954065386961677e-01  -1.6273753306546748e-01  -1.9656316879744737e-01  -2.3318319223502532e-01  -2.7038738817841507e-01  -2.9851013278689348e-01  -3.2185686072414432e-01  -3.7462430205321118e-01  -4.4745093383016132e-01  -4.3143557929882703e-01  -2.4529596109687768e-01  -7.6107857635017342e-03  2.5409972280200043e-02  2.3409315979859704e-02  1.8098225170966462e-01  3.0271131110567973e-01  3.8970035554522042e-01  4.0429570554290406e-01  3.7074532473697008e-01  3.2721976635443611e-01  2.9321814651744688e-01  2.6467959770630844e-01  2.3380398441961694e-01  2.0036539878383727e-01  1.6735970127618907e-01  1.3527898536504893e-01  1.0311155633707197e-01  7.0594764087936648e-02  3.7889460666818288e-02  5.0470838496753873e-03  -2.7969309408860877e-02  -6.1217229037586411e-02  -9.4771157564925712e-02  -1.2869510328964998e-01  -1.6267057911960364e-01  -1.9589642837521792e-01  -2.2948417581518613e-01  -2.6726297401195914e-01  -3.0519765681482014e-01  -3.2956724097505730e-01  -3.5733485727458697e-01  -4.3012316368588233e-01  -4.8402690871578546e-01  -3.6680348322902356e-01  -7.9003446212837780e-02  4.2631323076597123e-02  3.9053233088027849e-02  2.3614574867969340e-01  3.4832271527575964e-01  4.1815433876274155e-01  4.1306586604123902e-01  3.7080795899971997e-01  3.2930319641618899e-01  2.9837857294845677e-01  2.6895114255945579e-01  2.3591511674405927e-01  2.0219602885864857e-01  1.6982135139809124e-01  1.3767716442025849e-01  1.0505938726226222e-01  7.2301347454240161e-02  3.9548005934786301e-02  6.6991054572942332e-03  -2.6323976501807088e-02  -5.9560322922783196e-02  -9.3030266794217817e-02  -1.2683466257272927e-01  -1.6124217095223589e-01  -1.9588701849034509e-01  -2.2925862063124300e-01  -2.6337550326994047e-01  -3.0354152371852061e-01  -3.3958181144919286e-01  -3.5867901539695607e-01  -4.0659866651710080e-01  -4.9487622280396831e-01  -4.6380805841814426e-01  -1.7735253673074125e-01  5.6153426829416986e-02  4.9515675275230799e-02  2.8250689230487447e-01  3.8321162796059888e-01  4.3793976694093978e-01  4.1878708076633181e-01  3.7244431229839531e-01  3.3342710761608951e-01  3.0345848690764626e-01  2.7218649944827367e-01  2.3798631818954444e-01  2.0463433402489123e-01  1.7238631943932189e-01  1.3977398414973613e-01  1.0689427842282624e-01  7.4163597528934436e-02  4.1437940062631851e-02  8.5684559312296169e-03  -2.4469978565186797e-02  -5.7722078396972652e-02  -9.1233805771322549e-02  -1.2498663735198336e-01  -1.5907868852890533e-01  -1.9407654793543705e-01  -2.2936668426550497e-01  -2.6278320068735445e-01  -2.9917312055686851e-01  -3.4230615087716132e-01  -3.6993849539631363e-01  -3.9455198901133537e-01  -4.8174521365642109e-01  -5.2764925967159571e-01  -2.8525250512867112e-01  5.9539032344793720e-02  5.3098300382013464e-02  3.1750409412106068e-01  4.0847679500057527e-01  4.5159210381204740e-01  4.2346254861216565e-01  3.7544294918978943e-01  3.3813032760869521e-01  3.0779134299046040e-01  2.7491451308515202e-01  2.4030719530243261e-01  2.0720378270398898e-01  1.7468172954200634e-01  1.4171743579079385e-01  1.0884193023183004e-01  7.6177041530545830e-02  4.3444362490445962e-02  1.0597077428390327e-02  -2.2385188207237255e-02  -5.5580782884286049e-02  -8.9061330226066687e-02  -1.2291085788079384e-01  -1.5706349653495891e-01  -1.9163247085375232e-01  -2.2753811261093007e-01  -2.6313346843711838e-01  -2.9700348484489508e-01  -3.3902867602750164e-01  -3.7976441867978539e-01  -3.9643908943515205e-01  -4.6211181818756208e-01  -5.6048036077459784e-01  -3.8749975830485289e-01  4.9597868517690324e-02  4.9451905608616301e-02  3.4010273933419372e-01  4.2507944223520200e-01  4.6080346886400692e-01  4.2765624307803490e-01  3.7908611332453940e-01  3.4246015284914599e-01  3.1134713657174545e-01  2.7740767794353838e-01  2.4267422159265259e-01  2.0955981736585688e-01  1.7672575678358154e-01  1.4362955648113515e-01  1.1082557194804449e-01  7.8189563273363585e-02  4.5496172536237202e-02  1.2757026201090132e-02  -2.0094339563291441e-02  -5.3161865947774098e-02  -8.6523193025663747e-02  -1.2026670507341811e-01  -1.5454808067840103e-01  -1.8922321928788408e-01  -2.2465373589854370e-01  -2.6176571794284648e-01  -2.9680147804052315e-01  -3.3450237250301162e-01  -3.8300153287132471e-01  -4.0625584522443342e-01  -4.4632144504501337e-01  -5.7013895836115835e-01  -4.7521886170058836e-01  2.7901475954814386e-02  4.0869747845546069e-02  3.4869775438199391e-01  4.3435457494370366e-01  4.6606667075638952e-01  4.3152255224689845e-01  3.8263831254407188e-01  3.4602536306331155e-01  3.1417318433340746e-01  2.7966978570724221e-01  2.4483482404133547e-01  2.1158689513629164e-01  1.7855700611033248e-01  1.4545331357635038e-01  1.1271863715650719e-01  8.0154004533879067e-02  4.7600491558535837e-02  1.5052363485505779e-02  -1.7594934391331609e-02  -5.0448137221490226e-02  -8.3616377901660432e-02  -1.1720029549227753e-01  -1.5130091815674454e-01  -1.8615909859128663e-01  -2.2151230344095543e-01  -2.5851342456872245e-01  -2.9607317329767707e-01  -3.3125427803873025e-01  -3.8025913955477852e-01  -4.1696357638455167e-01  -4.3737670320671340e-01  -5.6505136879341888e-01  -5.4550691469756507e-01  -1.4199275219551897e-03  2.9538958091546288e-02  3.4202766432579068e-01  4.3759759951431743e-01  4.6710342862084259e-01  4.3516910839416123e-01  3.8567437179285652e-01  3.4868137045848430e-01  3.1626967136873102e-01  2.8161017097752239e-01  2.4663675394222706e-01  2.1323286744065931e-01  1.8013688633829739e-01  1.4708951196149295e-01  1.1445235115562070e-01  8.2046793323423323e-02  4.9726280030624077e-02  1.7451606665314871e-02  -1.4892983694739532e-02  -4.7428915657878913e-02  -8.0275356284946517e-02  -1.1359650316472260e-01  -1.4747767568692002e-01  -1.8211502459091120e-01  -2.1770582909121852e-01  -2.5421039446109317e-01  -2.9318224184429220e-01  -3.2889022290852776e-01  -3.7418912733142151e-01  -4.2394472424573088e-01  -4.3401777007351955e-01  -5.5179251824830766e-01  -5.9892874927412143e-01  -3.4055757597392870e-02  1.5270687981517329e-02  3.2107993968111215e-01  4.3429035241298863e-01  4.6430180374123370e-01  4.3798511561110148e-01  3.8848826930937941e-01  3.5026516744282099e-01  3.1764844336360509e-01  2.8310353266420346e-01  2.4803726328065942e-01  2.1442193445198293e-01  1.8138587539209694e-01  1.4846063219228481e-01  1.1596516813002763e-01  8.3810349382096333e-02  5.1820805225702697e-02  1.9919845821146771e-02  -1.2008443199862608e-02  -4.4091261773106669e-02  -7.6495710706558459e-02  -1.0937279802384917e-01  -1.4291437538394869e-01  -1.7719471821265001e-01  -2.1267451977820931e-01  -2.4909014797634030e-01  -2.8799296430151117e-01  -3.2571776387857482e-01  -3.6681100956392948e-01  -4.2548501403520456e-01  -4.3338247897246324e-01  -5.3453088355163580e-01  -6.3749238755770854e-01  -6.6730730358181958e-02  -1.8757094873719123e-04  2.8658463766416747e-01  4.2295176139451623e-01  4.5809392340832927e-01  4.3909913932156286e-01  3.9149968382271200e-01  3.5096842253223598e-01  3.1818775882888051e-01  2.8406515803580035e-01  2.4900011038356323e-01  2.1512544220886567e-01  1.8217576583647258e-01  1.4948812435013159e-01  1.1719870820369871e-01  8.5364210534347340e-02  5.3815699808141639e-02  2.2417094940800027e-02  -8.9553435437930151e-03  -4.0441631730052434e-02  -7.2239718007668333e-02  -1.0453541474701933e-01  -1.3747060794844013e-01  -1.7132327213629839e-01  -2.0629044045411407e-01  -2.4271678793214899e-01  -2.8098538061590811e-01  -3.2023095003926710e-01  -3.5879743104064066e-01  -4.2174709920043324e-01  -4.3253841268009591e-01  -5.1550392296894343e-01  -6.6356749635974710e-01  -9.7195892794443739e-02  -1.3543900684277179e-02  2.3968594150711098e-01  4.0127815238101494e-01  4.4833352942421673e-01  4.3777314188277072e-01  3.9470469231064259e-01  3.5153034146587320e-01  3.1770239990875182e-01  2.8436608666965474e-01  2.4948358337969662e-01  2.1534222683139059e-01  1.8239345715164643e-01  1.5003029515184158e-01  1.1808453099161714e-01  8.6645428470418548e-02  5.5633511348928279e-02  2.4879299511617877e-02  -5.7748805999669984e-03  -3.6501352552946384e-02  -6.7518876466770503e-02  -9.9007210027636308e-02  -1.3112978478634510e-01  -1.6430742331456530e-01  -1.9859748717218983e-01  -2.3459222070250152e-01  -2.7241085404192822e-01  -3.1166117463590426e-01  -3.4985245308219887e-01  -4.1354835385700889e-01  -4.2923668431879047e-01  -4.9549891059255902e-01  -6.7955677349309240e-01  -1.2380045680603581e-01  -2.1988217183913087e-02  1.8350698328392118e-01  3.6646933675111149e-01  4.3364993988136125e-01  4.3352443508906485e-01  3.9742092484121661e-01  3.5289459938004675e-01  3.1643042128012427e-01  2.8364655955885321e-01  2.4940614390149651e-01  2.1506960165938380e-01  1.8197902458979134e-01  1.4990234986918530e-01  1.1845520678349865e-01  8.7567396262429265e-02  5.7206939045959235e-02  2.7234688919940245e-02  -2.5372855205283958e-03  -3.2316738361190749e-02  -6.2322582771134276e-02  -9.2738036395463394e-02  -1.2385163154065525e-01  -1.5607581592785846e-01  -1.8945768375405439e-01  -2.2458155276596892e-01  -2.6194500110618180e-01  -3.0001068813084358e-01  -3.3912020489240968e-01  -4.0168968135686051e-01  -4.2208363306531138e-01  -4.7412358631403151e-01  -6.8785662618965360e-01  -1.4531938883201029e-01  -2.4248273508022125e-02  1.2373232520236255e-01  3.1649780510387099e-01  4.1077907905362560e-01  4.2567619629304704e-01  3.9847176073427681e-01  3.5540647869809555e-01  3.1538927075213746e-01  2.8159852913329952e-01  2.4833298014470542e-01  2.1425986506858330e-01  1.8096250395137528e-01  1.4900171277154081e-01  1.1808088248624563e-01  8.7928502930600033e-02  5.8412980287261260e-02  2.9403259483432333e-02  7.0956767128200094e-04  -2.7891848732071164e-02  -5.6623762735102945e-02  -8.5750643403655902e-02  -1.1564306081814603e-01  -1.4657230718333164e-01  -1.7867428329989254e-01  -2.1271975303593929e-01  -2.4903158266260358e-01  -2.8551999189736715e-01  -3.2564667118950641e-01  -3.8690973154359948e-01  -4.0981174497526501e-01  -4.5058350497111205e-01  -6.9049227851687767e-01  -1.6129679610052686e-01  -2.1100680239384925e-02  6.8133774045181950e-02  2.5202766448485858e-01  3.7491577806230258e-01  4.1217022212650506e-01  3.9666277053324839e-01  3.5814673125477492e-01  3.1578141231017465e-01  2.7886735121348249e-01  2.4556168328221745e-01  2.1235178169487601e-01  1.7928072145645579e-01  1.4738393562583813e-01  1.1688451068341604e-01  8.7529871762591124e-02  5.9054227714855828e-02  3.1237074587680071e-02  3.8670260813877541e-03  -2.3299493372007579e-02  -5.0530983024704254e-02  -7.8157253995087744e-02  -1.0648024016020223e-01  -1.3564913868436312e-01  -1.6625839684574228e-01  -1.9887985672364109e-01  -2.3325416831555879e-01  -2.6810617979985901e-01  -3.0919365467515514e-01  -3.6927105383409425e-01  -3.9096777180313380e-01  -4.2420769396678887e-01  -6.8892324886332412e-01  -1.7225412547934493e-01  -1.4743835444182850e-02  2.4510744572227815e-02  1.7814487709313934e-01  3.2187350658515296e-01  3.8834226426984403e-01  3.9015561735289750e-01  3.5931171677355239e-01  3.1749766800338686e-01  2.7698335596432028e-01  2.4136147931855681e-01  2.0837284213681945e-01  1.7614467851415641e-01  1.4481002197695514e-01  1.1486243101341687e-01  8.6347981673029414e-02  5.9024268312747416e-02  3.2603692247031642e-02  6.7897802640530438e-03  -1.8709242408867798e-02  -4.4174233412847444e-02  -6.9928619714045515e-02  -9.6197907510479144e-02  -1