<?xml version="1.0"?>
<VTKFile type="UnstructuredGrid"  version="0.1"  >
<UnstructuredGrid>
<Piece  NumberOfPoints="1089" NumberOfCells="1024">
<Points>
<DataArray  type="Float64"  NumberOfComponents="3"  format="ascii">0 0 0  0.03125 0 0  0.0625 0 0  0.09375 0 0  0.125 0 0  0.15625 0 0  0.1875 0 0  0.21875 0 0  0.25 0 0  0.28125 0 0  0.3125 0 0  0.34375 0 0  0.375 0 0  0.40625 0 0  0.4375 0 0  0.46875 0 0  0.5 0 0  0.53125 0 0  0.5625 0 0  0.59375 0 0  0.625 0 0  0.65625 0 0  0.6875 0 0  0.71875 0 0  0.75 0 0  0.78125 0 0  0.8125 0 0  0.84375 0 0  0.875 0 0  0.90625 0 0  0.9375 0 0  0.96875 0 0  1 0 0  0 0.03125 0  0.03125 0.03125 0  0.0625 0.03125 0  0.09375 0.03125 0  0.125 0.03125 0  0.15625 0.03125 0  0.1875 0.03125 0  0.21875 0.03125 0  0.25 0.03125 0  0.28125 0.03125 0  0.3125 0.03125 0  0.34375 0.03125 0  0.375 0.03125 0  0.40625 0.03125 0  0.4375 0.03125 0  0.46875 0.03125 0  0.5 0.03125 0  0.53125 0.03125 0  0.5625 0.03125 0  0.59375 0.03125 0  0.625 0.03125 0  0.65625 0.03125 0  0.6875 0.03125 0  0.71875 0.03125 0  0.75 0.03125 0  0.78125 0.03125 0  0.8125 0.03125 0  0.84375 0.03125 0  0.875 0.03125 0  0.90625 0.03125 0  0.9375 0.03125 0  0.96875 0.03125 0  1 0.03125 0  0 0.0625 0  0.03125 0.0625 0  0.0625 0.0625 0  0.09375 0.0625 0  0.125 0.0625 0  0.15625 0.0625 0  0.1875 0.0625 0  0.21875 0.0625 0  0.25 0.0625 0  0.28125 0.0625 0  0.3125 0.0625 0  0.34375 0.0625 0  0.375 0.0625 0  0.40625 0.0625 0  0.4375 0.0625 0  0.46875 0.0625 0  0.5 0.0625 0  0.53125 0.0625 0  0.5625 0.0625 0  0.59375 0.0625 0  0.625 0.0625 0  0.65625 0.0625 0  0.6875 0.0625 0  0.71875 0.0625 0  0.75 0.0625 0  0.78125 0.0625 0  0.8125 0.0625 0  0.84375 0.0625 0  0.875 0.0625 0  0.90625 0.0625 0  0.9375 0.0625 0  0.96875 0.0625 0  1 0.0625 0  0 0.09375 0  0.03125 0.09375 0  0.0625 0.09375 0  0.09375 0.09375 0  0.125 0.09375 0  0.15625 0.09375 0  0.1875 0.09375 0  0.21875 0.09375 0  0.25 0.09375 0  0.28125 0.09375 0  0.3125 0.09375 0  0.34375 0.09375 0  0.375 0.09375 0  0.40625 0.09375 0  0.4375 0.09375 0  0.46875 0.09375 0  0.5 0.09375 0  0.53125 0.09375 0  0.5625 0.09375 0  0.59375 0.09375 0  0.625 0.09375 0  0.65625 0.09375 0  0.6875 0.09375 0  0.71875 0.09375 0  0.75 0.09375 0  0.78125 0.09375 0  0.8125 0.09375 0  0.84375 0.09375 0  0.875 0.09375 0  0.90625 0.09375 0  0.9375 0.09375 0  0.96875 0.09375 0  1 0.09375 0  0 0.125 0  0.03125 0.125 0  0.0625 0.125 0  0.09375 0.125 0  0.125 0.125 0  0.15625 0.125 0  0.1875 0.125 0  0.21875 0.125 0  0.25 0.125 0  0.28125 0.125 0  0.3125 0.125 0  0.34375 0.125 0  0.375 0.125 0  0.40625 0.125 0  0.4375 0.125 0  0.46875 0.125 0  0.5 0.125 0  0.53125 0.125 0  0.5625 0.125 0  0.59375 0.125 0  0.625 0.125 0  0.65625 0.125 0  0.6875 0.125 0  0.71875 0.125 0  0.75 0.125 0  0.78125 0.125 0  0.8125 0.125 0  0.84375 0.125 0  0.875 0.125 0  0.90625 0.125 0  0.9375 0.125 0  0.96875 0.125 0  1 0.125 0  0 0.15625 0  0.03125 0.15625 0  0.0625 0.15625 0  0.09375 0.15625 0  0.125 0.15625 0  0.15625 0.15625 0  0.1875 0.15625 0  0.21875 0.15625 0  0.25 0.15625 0  0.28125 0.15625 0  0.3125 0.15625 0  0.34375 0.15625 0  0.375 0.15625 0  0.40625 0.15625 0  0.4375 0.15625 0  0.46875 0.15625 0  0.5 0.15625 0  0.53125 0.15625 0  0.5625 0.15625 0  0.59375 0.15625 0  0.625 0.15625 0  0.65625 0.15625 0  0.6875 0.15625 0  0.71875 0.15625 0  0.75 0.15625 0  0.78125 0.15625 0  0.8125 0.15625 0  0.84375 0.15625 0  0.875 0.15625 0  0.90625 0.15625 0  0.9375 0.15625 0  0.96875 0.15625 0  1 0.15625 0  0 0.1875 0  0.03125 0.1875 0  0.0625 0.1875 0  0.09375 0.1875 0  0.125 0.1875 0  0.15625 0.1875 0  0.1875 0.1875 0  0.21875 0.1875 0  0.25 0.1875 0  0.28125 0.1875 0  0.3125 0.1875 0  0.34375 0.1875 0  0.375 0.1875 0  0.40625 0.1875 0  0.4375 0.1875 0  0.46875 0.1875 0  0.5 0.1875 0  0.53125 0.1875 0  0.5625 0.1875 0  0.59375 0.1875 0  0.625 0.1875 0  0.65625 0.1875 0  0.6875 0.1875 0  0.71875 0.1875 0  0.75 0.1875 0  0.78125 0.1875 0  0.8125 0.1875 0  0.84375 0.1875 0  0.875 0.1875 0  0.90625 0.1875 0  0.9375 0.1875 0  0.96875 0.1875 0  1 0.1875 0  0 0.21875 0  0.03125 0.21875 0  0.0625 0.21875 0  0.09375 0.21875 0  0.125 0.21875 0  0.15625 0.21875 0  0.1875 0.21875 0  0.21875 0.21875 0  0.25 0.21875 0  0.28125 0.21875 0  0.3125 0.21875 0  0.34375 0.21875 0  0.375 0.21875 0  0.40625 0.21875 0  0.4375 0.21875 0  0.46875 0.21875 0  0.5 0.21875 0  0.53125 0.21875 0  0.5625 0.21875 0  0.59375 0.21875 0  0.625 0.21875 0  0.65625 0.21875 0  0.6875 0.21875 0  0.71875 0.21875 0  0.75 0.21875 0  0.78125 0.21875 0  0.8125 0.21875 0  0.84375 0.21875 0  0.875 0.21875 0  0.90625 0.21875 0  0.9375 0.21875 0  0.96875 0.21875 0  1 0.21875 0  0 0.25 0  0.03125 0.25 0  0.0625 0.25 0  0.09375 0.25 0  0.125 0.25 0  0.15625 0.25 0  0.1875 0.25 0  0.21875 0.25 0  0.25 0.25 0  0.28125 0.25 0  0.3125 0.25 0  0.34375 0.25 0  0.375 0.25 0  0.40625 0.25 0  0.4375 0.25 0  0.46875 0.25 0  0.5 0.25 0  0.53125 0.25 0  0.5625 0.25 0  0.59375 0.25 0  0.625 0.25 0  0.65625 0.25 0  0.6875 0.25 0  0.71875 0.25 0  0.75 0.25 0  0.78125 0.25 0  0.8125 0.25 0  0.84375 0.25 0  0.875 0.25 0  0.90625 0.25 0  0.9375 0.25 0  0.96875 0.25 0  1 0.25 0  0 0.28125 0  0.03125 0.28125 0  0.0625 0.28125 0  0.09375 0.28125 0  0.125 0.28125 0  0.15625 0.28125 0  0.1875 0.28125 0  0.21875 0.28125 0  0.25 0.28125 0  0.28125 0.28125 0  0.3125 0.28125 0  0.34375 0.28125 0  0.375 0.28125 0  0.40625 0.28125 0  0.4375 0.28125 0  0.46875 0.28125 0  0.5 0.28125 0  0.53125 0.28125 0  0.5625 0.28125 0  0.59375 0.28125 0  0.625 0.28125 0  0.65625 0.28125 0  0.6875 0.28125 0  0.71875 0.28125 0  0.75 0.28125 0  0.78125 0.28125 0  0.8125 0.28125 0  0.84375 0.28125 0  0.875 0.28125 0  0.90625 0.28125 0  0.9375 0.28125 0  0.96875 0.28125 0  1 0.28125 0  0 0.3125 0  0.03125 0.3125 0  0.0625 0.3125 0  0.09375 0.3125 0  0.125 0.3125 0  0.15625 0.3125 0  0.1875 0.3125 0  0.21875 0.3125 0  0.25 0.3125 0  0.28125 0.3125 0  0.3125 0.3125 0  0.34375 0.3125 0  0.375 0.3125 0  0.40625 0.3125 0  0.4375 0.3125 0  0.46875 0.3125 0  0.5 0.3125 0  0.53125 0.3125 0  0.5625 0.3125 0  0.59375 0.3125 0  0.625 0.3125 0  0.65625 0.3125 0  0.6875 0.3125 0  0.71875 0.3125 0  0.75 0.3125 0  0.78125 0.3125 0  0.8125 0.3125 0  0.84375 0.3125 0  0.875 0.3125 0  0.90625 0.3125 0  0.9375 0.3125 0  0.96875 0.3125 0  1 0.3125 0  0 0.34375 0  0.03125 0.34375 0  0.0625 0.34375 0  0.09375 0.34375 0  0.125 0.34375 0  0.15625 0.34375 0  0.1875 0.34375 0  0.21875 0.34375 0  0.25 0.34375 0  0.28125 0.34375 0  0.3125 0.34375 0  0.34375 0.34375 0  0.375 0.34375 0  0.40625 0.34375 0  0.4375 0.34375 0  0.46875 0.34375 0  0.5 0.34375 0  0.53125 0.34375 0  0.5625 0.34375 0  0.59375 0.34375 0  0.625 0.34375 0  0.65625 0.34375 0  0.6875 0.34375 0  0.71875 0.34375 0  0.75 0.34375 0  0.78125 0.34375 0  0.8125 0.34375 0  0.84375 0.34375 0  0.875 0.34375 0  0.90625 0.34375 0  0.9375 0.34375 0  0.96875 0.34375 0  1 0.34375 0  0 0.375 0  0.03125 0.375 0  0.0625 0.375 0  0.09375 0.375 0  0.125 0.375 0  0.15625 0.375 0  0.1875 0.375 0  0.21875 0.375 0  0.25 0.375 0  0.28125 0.375 0  0.3125 0.375 0  0.34375 0.375 0  0.375 0.375 0  0.40625 0.375 0  0.4375 0.375 0  0.46875 0.375 0  0.5 0.375 0  0.53125 0.375 0  0.5625 0.375 0  0.59375 0.375 0  0.625 0.375 0  0.65625 0.375 0  0.6875 0.375 0  0.71875 0.375 0  0.75 0.375 0  0.78125 0.375 0  0.8125 0.375 0  0.84375 0.375 0  0.875 0.375 0  0.90625 0.375 0  0.9375 0.375 0  0.96875 0.375 0  1 0.375 0  0 0.40625 0  0.03125 0.40625 0  0.0625 0.40625 0  0.09375 0.40625 0  0.125 0.40625 0  0.15625 0.40625 0  0.1875 0.40625 0  0.21875 0.40625 0  0.25 0.40625 0  0.28125 0.40625 0  0.3125 0.40625 0  0.34375 0.40625 0  0.375 0.40625 0  0.40625 0.40625 0  0.4375 0.40625 0  0.46875 0.40625 0  0.5 0.40625 0  0.53125 0.40625 0  0.5625 0.40625 0  0.59375 0.40625 0  0.625 0.40625 0  0.65625 0.40625 0  0.6875 0.40625 0  0.71875 0.40625 0  0.75 0.40625 0  0.78125 0.40625 0  0.8125 0.40625 0  0.84375 0.40625 0  0.875 0.40625 0  0.90625 0.40625 0  0.9375 0.40625 0  0.96875 0.40625 0  1 0.40625 0  0 0.4375 0  0.03125 0.4375 0  0.0625 0.4375 0  0.09375 0.4375 0  0.125 0.4375 0  0.15625 0.4375 0  0.1875 0.4375 0  0.21875 0.4375 0  0.25 0.4375 0  0.28125 0.4375 0  0.3125 0.4375 0  0.34375 0.4375 0  0.375 0.4375 0  0.40625 0.4375 0  0.4375 0.4375 0  0.46875 0.4375 0  0.5 0.4375 0  0.53125 0.4375 0  0.5625 0.4375 0  0.59375 0.4375 0  0.625 0.4375 0  0.65625 0.4375 0  0.6875 0.4375 0  0.71875 0.4375 0  0.75 0.4375 0  0.78125 0.4375 0  0.8125 0.4375 0  0.84375 0.4375 0  0.875 0.4375 0  0.90625 0.4375 0  0.9375 0.4375 0  0.96875 0.4375 0  1 0.4375 0  0 0.46875 0  0.03125 0.46875 0  0.0625 0.46875 0  0.09375 0.46875 0  0.125 0.46875 0  0.15625 0.46875 0  0.1875 0.46875 0  0.21875 0.46875 0  0.25 0.46875 0  0.28125 0.46875 0  0.3125 0.46875 0  0.34375 0.46875 0  0.375 0.46875 0  0.40625 0.46875 0  0.4375 0.46875 0  0.46875 0.46875 0  0.5 0.46875 0  0.53125 0.46875 0  0.5625 0.46875 0  0.59375 0.46875 0  0.625 0.46875 0  0.65625 0.46875 0  0.6875 0.46875 0  0.71875 0.46875 0  0.75 0.46875 0  0.78125 0.46875 0  0.8125 0.46875 0  0.84375 0.46875 0  0.875 0.46875 0  0.90625 0.46875 0  0.9375 0.46875 0  0.96875 0.46875 0  1 0.46875 0  0 0.5 0  0.03125 0.5 0  0.0625 0.5 0  0.09375 0.5 0  0.125 0.5 0  0.15625 0.5 0  0.1875 0.5 0  0.21875 0.5 0  0.25 0.5 0  0.28125 0.5 0  0.3125 0.5 0  0.34375 0.5 0  0.375 0.5 0  0.40625 0.5 0  0.4375 0.5 0  0.46875 0.5 0  0.5 0.5 0  0.53125 0.5 0  0.5625 0.5 0  0.59375 0.5 0  0.625 0.5 0  0.65625 0.5 0  0.6875 0.5 0  0.71875 0.5 0  0.75 0.5 0  0.78125 0.5 0  0.8125 0.5 0  0.84375 0.5 0  0.875 0.5 0  0.90625 0.5 0  0.9375 0.5 0  0.96875 0.5 0  1 0.5 0  0 0.53125 0  0.03125 0.53125 0  0.0625 0.53125 0  0.09375 0.53125 0  0.125 0.53125 0  0.15625 0.53125 0  0.1875 0.53125 0  0.21875 0.53125 0  0.25 0.53125 0  0.28125 0.53125 0  0.3125 0.53125 0  0.34375 0.53125 0  0.375 0.53125 0  0.40625 0.53125 0  0.4375 0.53125 0  0.46875 0.53125 0  0.5 0.53125 0  0.53125 0.53125 0  0.5625 0.53125 0  0.59375 0.53125 0  0.625 0.53125 0  0.65625 0.53125 0  0.6875 0.53125 0  0.71875 0.53125 0  0.75 0.53125 0  0.78125 0.531
[...]
<PointData  Scalars="u_sol"> 
<DataArray  type="Float64"  Name="u_sol"  format="ascii">-7.0741171587351796e-05  -4.8695830197904407e-05  5.5631923325640009e-04  1.1433945054413724e-03  1.4372736918766206e-03  1.7601279610058708e-03  2.3994846468993179e-03  3.6777026487871635e-03  5.5536409213646108e-03  7.0494644576609587e-03  8.4755092357318932e-03  1.0916275661132884e-02  1.2569113917625514e-02  1.0296913926264403e-02  3.3063314547063802e-03  -6.4837146868758468e-03  -1.5812689391046075e-02  -2.1452961228593779e-02  -2.1211359480264997e-02  -1.4569908976632762e-02  -3.0824508335394753e-03  9.7699438508356239e-03  1.9606698996763681e-02  2.3139311600483988e-02  2.0100051704046627e-02  1.3391280166220461e-02  6.9794548650458617e-03  2.9718590167567118e-03  1.0363365485078896e-03  2.0494097742005096e-04  -1.5429575245414772e-04  -2.4701060195792256e-04  -2.7288093454678319e-05  -4.0917865178065777e-04  2.1435967403824084e-03  7.3582769374032049e-03  1.1671286858255765e-02  1.3296897952906056e-02  1.2707214368446877e-02  1.0408391692360949e-02  5.0542757733033376e-03  -5.4056791594912362e-03  -2.3694549142686459e-02  -5.3288737437947938e-02  -9.3579193345468881e-02  -1.3839830999965044e-01  -1.7997413177542496e-01  -2.1229508664159660e-01  -2.3189744777659080e-01  -2.3716291126333736e-01  -2.2766765219050342e-01  -2.0385662567549298e-01  -1.6719869078170954e-01  -1.2061693442810147e-01  -6.8971207672613610e-02  -1.8984952522853423e-02  2.1963043846144815e-02  4.8262254162565708e-02  5.8274136865928451e-02  5.4427603518744365e-02  4.2190626189096747e-02  2.7930836855614614e-02  1.5881266338948753e-02  7.2199267023168277e-03  1.7204714532598098e-03  -3.2936785220241086e-04  -6.2569710870217924e-04  3.4145483082140687e-03  1.0095857967564103e-02  1.3492351002142784e-02  1.2033623154228026e-02  5.7049300675298285e-03  -7.5275271979909370e-03  -3.1772890268492053e-02  -7.2056278971764157e-02  -1.2763036226789096e-01  -1.8895833304933318e-01  -2.4627420698233177e-01  -2.9401321569657357e-01  -3.2992859338149194e-01  -3.5390985574515227e-01  -3.6664798654759262e-01  -3.6887450089927237e-01  -3.6084199689901120e-01  -3.4217842842884094e-01  -3.1203269379028808e-01  -2.6969286193995173e-01  -2.1575109259767261e-01  -1.5362908016518712e-01  -9.0451461840359237e-02  -3.5620166098386738e-02  3.6165254826350055e-03  2.5957277400618674e-02  3.3695584279512809e-02  3.0447688167019690e-02  2.1423462942338142e-02  1.1473490021818807e-02  3.2863863727317822e-03  -5.5507597091481939e-04  -7.1003636289303142e-04  4.0769901071214297e-03  9.6074863053246772e-03  7.9665267319555619e-03  -2.0910450626288671e-03  -2.1813857715343669e-02  -5.6744450916018825e-02  -1.1174204489690537e-01  -1.8061176924645209e-01  -2.4968052032521088e-01  -3.0931527134608539e-01  -3.5618521692349969e-01  -3.9074197204966277e-01  -4.1491771798572646e-01  -4.3068832154760189e-01  -4.3962662987808926e-01  -4.4273200669853652e-01  -4.4035285332347424e-01  -4.3199936891054025e-01  -4.1606211471061277e-01  -3.8964547516756731e-01  -3.4905099452029581e-01  -2.9166574288652952e-01  -2.1933727944109122e-01  -1.4139061105379538e-01  -7.3030696673085385e-02  -2.5882079770035694e-02  9.3277773993819988e-04  1.3145560306286401e-02  1.4570004503435117e-02  9.6963032087019289e-03  3.0311690494619742e-03  -5.2675065657981177e-04  -5.2547262328798473e-04  3.7783966643546050e-03  4.5421262216357693e-03  -5.9589928939095165e-03  -2.8495606562153421e-02  -6.9129785743690900e-02  -1.3166623609559369e-01  -2.0619846793731439e-01  -2.7658331753886184e-01  -3.3320254334711119e-01  -3.7392189260880471e-01  -4.0052321580921413e-01  -4.1634054129721854e-01  -4.2470914676737143e-01  -4.2841494214744319e-01  -4.2952934230133916e-01  -4.2952467206943318e-01  -4.2938905508316916e-01  -4.2956269081549503e-01  -4.2953153325156179e-01  -4.2693917502386869e-01  -4.1654737000456982e-01  -3.9010456858491493e-01  -3.3908782082268957e-01  -2.6127487541974043e-01  -1.6823583738607598e-01  -8.5079001663481452e-02  -3.2495053526050220e-02  -6.8565609584576174e-03  3.6250023843171710e-03  4.7101592348264085e-03  1.7608470715004567e-03  -3.4296929250204606e-04  8.4824523349169055e-05  1.4211181524861865e-03  -6.8124232230301913e-03  -3.0655217751073292e-02  -7.2188164069476049e-02  -1.3456685898223586e-01  -2.0870620999335815e-01  -2.7700955034253216e-01  -3.2853422154120349e-01  -3.6145947887496882e-01  -3.7871039581738081e-01  -3.8531422874627913e-01  -3.8609042744432431e-01  -3.8452045323149248e-01  -3.8250964850266922e-01  -3.8079993142140250e-01  -3.7961046406138432e-01  -3.7913033536891461e-01  -3.7988100750659143e-01  -3.8277552293184441e-01  -3.8871863079807917e-01  -3.9710108547086559e-01  -4.0307378458445625e-01  -3.9513167426325113e-01  -3.5742340171095738e-01  -2.8034029052202447e-01  -1.7556969043736453e-01  -8.0307056864571111e-02  -2.6467019658399114e-02  -5.5578189273511828e-03  1.0453732014395350e-03  6.5627252066007512e-04  -1.2707582226906231e-04  1.0390724100398723e-03  -3.6043713847075994e-03  -2.3762124630369322e-02  -6.1959106138329070e-02  -1.1958180995556777e-01  -1.9062783718841625e-01  -2.5734285444284161e-01  -3.0583149127690984e-01  -3.3366070628713856e-01  -3.4491210674298295e-01  -3.4643978912987350e-01  -3.4445658125359796e-01  -3.4252297513884750e-01  -3.4178214366859361e-01  -3.4193969942519076e-01  -3.4239838074672091e-01  -3.4269125808831302e-01  -3.4265560009155382e-01  -3.4238346508376954e-01  -3.4231862129129004e-01  -3.4351555924452404e-01  -3.4792502944939835e-01  -3.5757457533811371e-01  -3.7077042855812048e-01  -3.7589877572011504e-01  -3.5056187960342627e-01  -2.7597860427417792e-01  -1.6265018505596024e-01  -6.2636885639855477e-02  -1.4969134338502213e-02  -1.5816353049218819e-03  1.0225000439785317e-03  -1.3702522605242774e-04  2.0385471571607431e-03  -1.0874160964304068e-02  -4.4226888713146124e-02  -9.5496853081173519e-02  -1.6115265556542707e-01  -2.2624703921624847e-01  -2.7410824860393590e-01  -3.0002855593371153e-01  -3.0876995579996830e-01  -3.0846369227102921e-01  -3.0641170249622462e-01  -3.0587512291551011e-01  -3.0710566085335078e-01  -3.0911195143062153e-01  -3.1108015128118266e-01  -3.1263203473347362e-01  -3.1370000071488535e-01  -3.1435201253862272e-01  -3.1467108905782076e-01  -3.1473654468618478e-01  -3.1463552894648172e-01  -3.1480380578005751e-01  -3.1677699253790742e-01  -3.2373305602538488e-01  -3.3719751459941333e-01  -3.4746371966474487e-01  -3.2755587369767808e-01  -2.5096949584466177e-01  -1.3020011365624018e-01  -3.7567063796507622e-02  -4.1053923332524432e-03  1.3630801231824471e-03  -3.5360119118719785e-04  2.8727020279076371e-03  -1.8829083497754376e-02  -6.3234202125471886e-02  -1.2070550195291137e-01  -1.8281814171809493e-01  -2.3257987457735965e-01  -2.6093082165238046e-01  -2.7106456598591466e-01  -2.7154202905201230e-01  -2.7042598650543781e-01  -2.7121660968754335e-01  -2.7362136193636238e-01  -2.7645712677380146e-01  -2.7895047910024034e-01  -2.8095966546703377e-01  -2.8253160019677315e-01  -2.8378479482046864e-01  -2.8479303492323105e-01  -2.8561376905605501e-01  -2.8624824213606237e-01  -2.8663877959312367e-01  -2.8669068633850553e-01  -2.8656792778686740e-01  -2.8756511112666977e-01  -2.9319352442149715e-01  -3.0627266257368552e-01  -3.1695407386614510e-01  -2.9379424081541178e-01  -2.0700392254190997e-01  -8.3160939506962309e-02  -1.3349091768733395e-02  -1.7604539541830856e-03  1.0525297523719551e-03  3.4222057546847138e-03  -2.5210113651958566e-02  -7.6032267102195947e-02  -1.3300221940492069e-01  -1.8569130317151003e-01  -2.1998311415847738e-01  -2.3445575188667969e-01  -2.3686603937756764e-01  -2.3623192417055305e-01  -2.3729136700094097e-01  -2.4004323701983141e-01  -2.4316075943058171e-01  -2.4590644197645628e-01  -2.4817276521835666e-01  -2.5009134363340491e-01  -2.5175780100954970e-01  -2.5326222047988611e-01  -2.5465982248627922e-01  -2.5602670459403581e-01  -2.5739409719198275e-01  -2.5871146974201498e-01  -2.5968803448016059e-01  -2.5980542759022013e-01  -2.5883227308761997e-01  -2.5848149971319823e-01  -2.6373787246654717e-01  -2.7767222623157883e-01  -2.8529402267346787e-01  -2.4911281281706738e-01  -1.4407367259504336e-01  -3.5973676652213446e-02  2.7362442151743767e-03  1.8456829222036070e-04  3.6968915501649911e-03  -2.8301932064383608e-02  -8.0221326429358961e-02  -1.3119795420158639e-01  -1.7173880404322298e-01  -1.9290184692952136e-01  -1.9935005360282107e-01  -2.0022065193098712e-01  -2.0185510820025901e-01  -2.0530144716915888e-01  -2.0905844441113466e-01  -2.1225138884423964e-01  -2.1481507901741326e-01  -2.1699243020810099e-01  -2.1893973061433944e-01  -2.2072416304559203e-01  -2.2237710148965315e-01  -2.2391729177351777e-01  -2.2538218167963558e-01  -2.2682525574013873e-01  -2.2835451167183551e-01  -2.3006230793228330e-01  -2.3176239884458016e-01  -2.3252898491662508e-01  -2.3122994611549383e-01  -2.2975044791716742e-01  -2.3558575810668156e-01  -2.5065106161410483e-01  -2.4905091342840374e-01  -1.8819242429601238e-01  -6.9486792481029944e-02  -2.3416035139454533e-03  -1.8896819435156855e-03  3.7256992446372977e-03  -2.7516140253261063e-02  -7.5931573187435222e-02  -1.1867179668088544e-01  -1.4889060987175948e-01  -1.6257727639840702e-01  -1.6676156326597952e-01  -1.6879397488976086e-01  -1.7202236852931888e-01  -1.7570812374874936e-01  -1.7885726897898971e-01  -1.8145793113485179e-01  -1.8379078159700341e-01  -1.8602109206704665e-01  -1.8815041089205239e-01  -1.9017877947856232e-01  -1.9211375453838145e-01  -1.9397693004007141e-01  -1.9577953122086242e-01  -1.9750965296932527e-01  -1.9912554555811457e-01  -2.0061162337713981e-01  -2.0207928817014401e-01  -2.0360598228019719e-01  -2.0438494006974500e-01  -2.0285272444002508e-01  -2.0149745816454204e-01  -2.0990923260720198e-01  -2.2292131546573932e-01  -2.0042428999105585e-01  -1.0618443834780845e-01  -1.9555589063247225e-02  2.2703410590332092e-03  3.5570061208914949e-03  -2.3324635533388607e-02  -6.5252667804146597e-02  -9.9129074214783355e-02  -1.2072652824762724e-01  -1.2943731084555940e-01  -1.3258522667444714e-01  -1.3568038588149414e-01  -1.3980606853318636e-01  -1.4380487192964225e-01  -1.4721495307504401e-01  -1.5018532671129048e-01  -1.5285943266141119e-01  -1.5529071125611438e-01  -1.5753101923087884e-01  -1.5965290363267298e-01  -1.6169625758924003e-01  -1.6369594207634702e-01  -1.6567205746489427e-01  -1.6764729470735051e-01  -1.6962939362993401e-01  -1.7159162810464840e-01  -1.7343245053679168e-01  -1.7505290371408438e-01  -1.7626796609106127e-01  -1.7611804242788587e-01  -1.7372302551107141e-01  -1.7468354394681260e-01  -1.8664726205064897e-01  -1.8758239332662741e-01  -1.2634006412338689e-01  -2.8001733780394250e-02  9.5472202644715752e-03  3.2133060809020355e-03  -1.6842868602389063e-02  -5.0415494567609562e-02  -7.6231398110125526e-02  -9.1993615794142836e-02  -9.9175782727657716e-02  -1.0341041114917107e-01  -1.0758961100311235e-01  -1.1172754152166216e-01  -1.1511890985257729e-01  -1.1786047387616883e-01  -1.2027203852171581e-01  -1.2254001088033824e-01  -1.2476481988874913e-01  -1.2698733868372444e-01  -1.2920617401453144e-01  -1.3142338008306198e-01  -1.3366034022071704e-01  -1.3591679550904351e-01  -1.3817381495804759e-01  -1.4038124635073856e-01  -1.4249159023744468e-01  -1.4449144263703548e-01  -1.4643909426533933e-01  -1.4835148835712941e-01  -1.4951319546550340e-01  -1.4796949676250629e-01  -1.4519783694342769e-01  -1.5137404463500773e-01  -1.6073605241653605e-01  -1.2801194618486034e-01  -3.4544143245102223e-02  1.3117744389265653e-02  2.6722339043496633e-03  -9.1504489966144232e-03  -3.3600017176773009e-02  -5.2152852623182040e-02  -6.3039757151981013e-02  -6.8441703299763415e-02  -7.2020968508258551e-02  -7.5857392615818406e-02  -7.9654907838839703e-02  -8.3037254448095676e-02  -8.6095498141051302e-02  -8.8940802553353210e-02  -9.1605214430293569e-02  -9.4109008011205822e-02  -9.6469787035797908e-02  -9.8761445599438780e-02  -1.0107373481852117e-01  -1.0345535943589401e-01  -1.0592211655494405e-01  -1.0848497025987097e-01  -1.1113064861469438e-01  -1.1380337189841247e-01  -1.1636046487659471e-01  -1.1860210777796031e-01  -1.2053238677418664e-01  -1.2238162662351525e-01  -1.2292807813431747e-01  -1.1992687298904843e-01  -1.2053309703136898e-01  -1.3066443147036755e-01  -1.1652252935232520e-01  -3.8681464366923345e-02  1.2127099664846814e-02  1.9445437933173155e-03  -1.2806745703309909e-03  -1.6038821220606968e-02  -2.8269141675212439e-02  -3.5750181305952013e-02  -4.1013075343845247e-02  -4.5449921454221484e-02  -4.9557845938789098e-02  -5.2983031483365410e-02  -5.5734700624203243e-02  -5.8020408659190885e-02  -6.0063462864592132e-02  -6.2012388693102306e-02  -6.3970819267448881e-02  -6.6026494392545473e-02  -6.8257466668618538e-02  -7.0664166556695537e-02  -7.3230698440741593e-02  -7.5959332722421433e-02  -7.8837278879422629e-02  -8.1823025696637700e-02  -8.4868537124045393e-02  -8.7940588616150075e-02  -9.0984297512244128e-02  -9.3781791095758946e-02  -9.6158637144882153e-02  -9.7790922415003340e-02  -9.6527905412836165e-02  -9.4686833848289201e-02  -1.0236235675090198e-01  -1.0007758669591817e-01  -4.0184281033839218e-02  9.8409719800387884e-03  9.7053440583005847e-04  6.1420949322654418e-03  1.2515295664672381e-03  -5.0213021741178964e-03  -8.8688408124150391e-03  -1.2498722108394335e-02  -1.5456427447185350e-02  -1.8306424872883219e-02  -2.0942310085460023e-02  -2.3460693617383854e-02  -2.5905534460909051e-02  -2.8293884723020486e-02  -3.0621213577213459e-02  -3.2916558457260027e-02  -3.5232514202580008e-02  -3.7613417444958386e-02  -4.0106808645358115e-02  -4.2807569939689268e-02  -4.5772465272226226e-02  -4.9007468528867802e-02  -5.2501060522708566e-02  -5.6200352521313751e-02  -5.9972939678931532e-02  -6.3661856833047356e-02  -6.7158021713940808e-02  -7.0471887228921920e-02  -7.3545198661525354e-02  -7.4381869046677554e-02  -7.2396160746572583e-02  -7.8124861996336045e-02  -8.2398998843386945e-02  -3.8782167543442034e-02  7.2129361085170483e-03  -2.0244887936784561e-04  1.2510526970669855e-02  1.7966242042853679e-02  1.7395812315585280e-02  1.6464386626363632e-02  1.3136819943037031e-02  9.4969789953981733e-03  6.5016562747182705e-03  4.2311716907635528e-03  2.4107961110052907e-03  9.1100526993074615e-04  -4.1704657679297207e-04  -1.7343030286217814e-03  -3.1856005925855824e-03  -4.8762836023214249e-03  -6.8868383009259978e-03  -9.2937640889598615e-03  -1.2127190867053200e-02  -1.5351502382405107e-02  -1.8951238766678116e-02  -2.2907125569784720e-02  -2.7181633696281623e-02  -3.1729489185571572e-02  -3.6482950504205865e-02  -4.1239692949269061e-02  -4.5660766711455761e-02  -4.9799565548907576e-02  -5.3026122146961091e-02  -5.2766224954018032e-02  -5.7497627135057516e-02  -6.6147715066023682e-02  -3.5611206633089726e-02  5.2683204050312160e-03  -1.6113520065513792e-03  1.7550889804074626e-02  3.3541958609939172e-02  3.9082124414188006e-02  4.1926942710738706e-02  4.0906075038735550e-02  3.9212078078051979e-02  3.7840894564274266e-02  3.6652771540142036e-02  3.5326730008019974e-02  3.3839269522886115e-02  3.2251077038952747e-02  3.0573421656348486e-02  2.8765887822156777e-02  2.6768374595959519e-02  2.4504361836201985e-02  2.1904563212212916e-02  1.8920544816809545e-02  1.5477450741173444e-02  1.1487529100820232e-02  6.9518308282225192e-03  1.9066709086495803e-03  -3.5495296926496291e-03  -9.2818479802283197e-03  -1.5195785545419633e-02  -2.1214178661222181e-02  -2.7085571211168998e-02  -3.2493016053937659e-02  -3.4768617108403559e-02  -4.0106244759732526e-02  -5.1460206117073845e-02  -3.1179833236587684e-02  3.7263851561554848e-03  -3.0793617178387551e-03  2.0863382447894544e-02  4.7752816092310690e-02  5.9888928608302132e-02  6.6037696347673841e-02  6.5835814736881382e-02  6.3197828131606126e-02  6.1291790773178902e-02  6.0310704265242362e-02  5.9744738847201592e-02  5.9386504561145366e-02  5.9124331427436741e-02  5.8782272331303023e-02  5.8172775322068049e-02  5.7146028425415038e-02  5.5583628274869679e-02  5.3397296110233999e-02  5.0504763981277158e-02  4.6852079795109795e-02  4.2452792261238215e-02  3.7365407476504464e-02  3.1584484969197808e-02  2.5144732520170732e-02  1.8086352777746183e-02  1.0594691968263644e-02  2.8921649200929034e-03  -4.7053860998235676e-03  -1.2586966060472736e-02  -1.8027417450796113e-02  -2.4948306430464313e-02  -3.9020214858896382e-02  -2.6539485898880225e-02  2.8235032804393490e-03  -4.4758985445690755e-03  2.2396952576358584e-02  5.9611056495731875e-02  7.9598999782909546e-02  9.0539104915392896e-02  9.3893566580465701e-02  9.3729214514573098e-02  9.3441033298910237e-02  9.3674396539086227e-02  9.3836236910888937e-02  9.3673007701636349e-02  9.3240125001004967e-02  9.2577111897226561e-02  9.1625096425806477e-02  9.0285562813684633e-02  8.8443175234750121e-02  8.5994362197484270e-02  8.2835600644301038e-02  7.8907747091274461e-02  7.4143045880834799e-02  6.8459121481667079e-02  6.1799163492469618e-02  5.4266475667848271e-02  4.5918759480559505e-02  3.6884556453500521e-02  2.7133087801502514e-02  1.7181411654364178e-02  6.8267226544618288e-03  -2.0507367333765861e-03  -1.1732186467451944e-02  -2.8389538764997349e-02  -2.2102992019334761e-02  2.1545260850460313e-03  -5.3148214192414705e-03  2.1985149006366691e-02  6.8189455136200700e-02  9.7137929373334070e-02  1.1271664771523240e-01  1.1798295826546167e-01  1.1702678023025029e-01  1.1556705903335092e-01  1.1553112059078637e-01  1.1645616106734209e-01  1.1771087573680129e-01  1.1899439817191829e-01  1.2009735553744288e-01  1.2079053487886593e-01  1.2086322488951572e-01  1.2013098045968534e-01  1.1846239523209642e-01  1.1573896730635617e-01  1.1188172736372635e-01  1.0680354623548581e-01  1.0049598302164144e-01  9.2998348044246323e-02  8.4353501764449570e-02  7.4470026290412994e-02  6.3541057948612256e-02  5.1676322574166586e-02  3.9341871318849066e-02  2.6086227512212058e-02  1.3327379803498910e-02  1.3599843267286083e-04  -2.0083355670158939e-02  -1.8942667917204205e-02  1.7556958583118958e-03  -5.2464241638059917e-03  1.9888642595560082e-02  7.1473150461252702e-02  1.1115322644559052e-01  1.3420807199041504e-01  1.4550353640995953e-01  1.4891574443904657e-01  1.4944482491892358e-01  1.5049778565824229e-01  1.5220470207384693e-01  1.5387505403402763e-01  1.5518604185455273e-01  1.5608931397519338e-01  1.5650629476099079e-01  1.5630838323879806e-01  1.5532176289428662e-01  1.5339181616461708e-01  1.5036674217886614e-01  1.4613517893328323e-01  1.4059748280696854e-01  1.3370642518738002e-01  1.2536062320662622e-01  1.1548385905274877e-01  1.0406853092063414e-01  9.1305034982763669e-02  7.7080671735311079e-02  6.1853336138450829e-02  4.5530710834951020e-02  2.8477896466846148e-02  1.0749891959237031e-02  -1.3797899607203882e-02  -1.7848531212025343e-02  1.1124603438355310e-03  -3.9439916631909284e-03  1.6098807329666447e-02  6.8195400420974397e-02  1.1866128388639889e-01  1.4967107152597611e-01  1.6519827996522687e-01  1.6979450369789570e-01  1.6985554226734878e-01  1.7014687176978727e-01  1.7229640563410129e-01  1.7567370494982221e-01  1.7935407026321035e-01  1.8274524341440154e-01  1.8548500090208639e-01  1.8730269143771741e-01  1.8796709267076964e-01  1.8728686174120912e-01  1.8511011861045046e-01  1.8131592128246860e-01  1.7580214559824692e-01  1.6847904133392344e-01  1.5925835675281530e-01  1.4814428360136764e-01  1.3514452295171697e-01  1.2030218888819864e-01  1.0365709393565289e-01  8.5569233901241298e-02  6.5709821441842509e-02  4.3631819995517768e-02  2.0599741674790437e-02  -9.8539061357759902e-03  -2.0189166363125385e-02  -2.0780861741185206e-05  -2.1833029639432410e-03  1.0877526609988850e-02  5.7556922501876898e-02  1.1752505584122128e-01  1.6089357558164261e-01  1.8700561321650089e-01  2.0027341726911257e-01  2.0535639119500623e-01  2.0787686181927956e-01  2.1076221869206768e-01  2.1444972566495904e-01  2.1829995637575358e-01  2.2174541640967385e-01  2.2443664988765175e-01  2.2612725609689133e-01  2.2662697370847779e