<?xml version="1.0"?>
<VTKFile type="UnstructuredGrid"  version="0.1"  >
<UnstructuredGrid>
<Piece  NumberOfPoints="1089" NumberOfCells="1024">
<Points>
<DataArray  type="Float64"  NumberOfComponents="3"  format="ascii">0 0 0  0.03125 0 0  0.0625 0 0  0.09375 0 0  0.125 0 0  0.15625 0 0  0.1875 0 0  0.21875 0 0  0.25 0 0  0.28125 0 0  0.3125 0 0  0.34375 0 0  0.375 0 0  0.40625 0 0  0.4375 0 0  0.46875 0 0  0.5 0 0  0.53125 0 0  0.5625 0 0  0.59375 0 0  0.625 0 0  0.65625 0 0  0.6875 0 0  0.71875 0 0  0.75 0 0  0.78125 0 0  0.8125 0 0  0.84375 0 0  0.875 0 0  0.90625 0 0  0.9375 0 0  0.96875 0 0  1 0 0  0 0.03125 0  0.03125 0.03125 0  0.0625 0.03125 0  0.09375 0.03125 0  0.125 0.03125 0  0.15625 0.03125 0  0.1875 0.03125 0  0.21875 0.03125 0  0.25 0.03125 0  0.28125 0.03125 0  0.3125 0.03125 0  0.34375 0.03125 0  0.375 0.03125 0  0.40625 0.03125 0  0.4375 0.03125 0  0.46875 0.03125 0  0.5 0.03125 0  0.53125 0.03125 0  0.5625 0.03125 0  0.59375 0.03125 0  0.625 0.03125 0  0.65625 0.03125 0  0.6875 0.03125 0  0.71875 0.03125 0  0.75 0.03125 0  0.78125 0.03125 0  0.8125 0.03125 0  0.84375 0.03125 0  0.875 0.03125 0  0.90625 0.03125 0  0.9375 0.03125 0  0.96875 0.03125 0  1 0.03125 0  0 0.0625 0  0.03125 0.0625 0  0.0625 0.0625 0  0.09375 0.0625 0  0.125 0.0625 0  0.15625 0.0625 0  0.1875 0.0625 0  0.21875 0.0625 0  0.25 0.0625 0  0.28125 0.0625 0  0.3125 0.0625 0  0.34375 0.0625 0  0.375 0.0625 0  0.40625 0.0625 0  0.4375 0.0625 0  0.46875 0.0625 0  0.5 0.0625 0  0.53125 0.0625 0  0.5625 0.0625 0  0.59375 0.0625 0  0.625 0.0625 0  0.65625 0.0625 0  0.6875 0.0625 0  0.71875 0.0625 0  0.75 0.0625 0  0.78125 0.0625 0  0.8125 0.0625 0  0.84375 0.0625 0  0.875 0.0625 0  0.90625 0.0625 0  0.9375 0.0625 0  0.96875 0.0625 0  1 0.0625 0  0 0.09375 0  0.03125 0.09375 0  0.0625 0.09375 0  0.09375 0.09375 0  0.125 0.09375 0  0.15625 0.09375 0  0.1875 0.09375 0  0.21875 0.09375 0  0.25 0.09375 0  0.28125 0.09375 0  0.3125 0.09375 0  0.34375 0.09375 0  0.375 0.09375 0  0.40625 0.09375 0  0.4375 0.09375 0  0.46875 0.09375 0  0.5 0.09375 0  0.53125 0.09375 0  0.5625 0.09375 0  0.59375 0.09375 0  0.625 0.09375 0  0.65625 0.09375 0  0.6875 0.09375 0  0.71875 0.09375 0  0.75 0.09375 0  0.78125 0.09375 0  0.8125 0.09375 0  0.84375 0.09375 0  0.875 0.09375 0  0.90625 0.09375 0  0.9375 0.09375 0  0.96875 0.09375 0  1 0.09375 0  0 0.125 0  0.03125 0.125 0  0.0625 0.125 0  0.09375 0.125 0  0.125 0.125 0  0.15625 0.125 0  0.1875 0.125 0  0.21875 0.125 0  0.25 0.125 0  0.28125 0.125 0  0.3125 0.125 0  0.34375 0.125 0  0.375 0.125 0  0.40625 0.125 0  0.4375 0.125 0  0.46875 0.125 0  0.5 0.125 0  0.53125 0.125 0  0.5625 0.125 0  0.59375 0.125 0  0.625 0.125 0  0.65625 0.125 0  0.6875 0.125 0  0.71875 0.125 0  0.75 0.125 0  0.78125 0.125 0  0.8125 0.125 0  0.84375 0.125 0  0.875 0.125 0  0.90625 0.125 0  0.9375 0.125 0  0.96875 0.125 0  1 0.125 0  0 0.15625 0  0.03125 0.15625 0  0.0625 0.15625 0  0.09375 0.15625 0  0.125 0.15625 0  0.15625 0.15625 0  0.1875 0.15625 0  0.21875 0.15625 0  0.25 0.15625 0  0.28125 0.15625 0  0.3125 0.15625 0  0.34375 0.15625 0  0.375 0.15625 0  0.40625 0.15625 0  0.4375 0.15625 0  0.46875 0.15625 0  0.5 0.15625 0  0.53125 0.15625 0  0.5625 0.15625 0  0.59375 0.15625 0  0.625 0.15625 0  0.65625 0.15625 0  0.6875 0.15625 0  0.71875 0.15625 0  0.75 0.15625 0  0.78125 0.15625 0  0.8125 0.15625 0  0.84375 0.15625 0  0.875 0.15625 0  0.90625 0.15625 0  0.9375 0.15625 0  0.96875 0.15625 0  1 0.15625 0  0 0.1875 0  0.03125 0.1875 0  0.0625 0.1875 0  0.09375 0.1875 0  0.125 0.1875 0  0.15625 0.1875 0  0.1875 0.1875 0  0.21875 0.1875 0  0.25 0.1875 0  0.28125 0.1875 0  0.3125 0.1875 0  0.34375 0.1875 0  0.375 0.1875 0  0.40625 0.1875 0  0.4375 0.1875 0  0.46875 0.1875 0  0.5 0.1875 0  0.53125 0.1875 0  0.5625 0.1875 0  0.59375 0.1875 0  0.625 0.1875 0  0.65625 0.1875 0  0.6875 0.1875 0  0.71875 0.1875 0  0.75 0.1875 0  0.78125 0.1875 0  0.8125 0.1875 0  0.84375 0.1875 0  0.875 0.1875 0  0.90625 0.1875 0  0.9375 0.1875 0  0.96875 0.1875 0  1 0.1875 0  0 0.21875 0  0.03125 0.21875 0  0.0625 0.21875 0  0.09375 0.21875 0  0.125 0.21875 0  0.15625 0.21875 0  0.1875 0.21875 0  0.21875 0.21875 0  0.25 0.21875 0  0.28125 0.21875 0  0.3125 0.21875 0  0.34375 0.21875 0  0.375 0.21875 0  0.40625 0.21875 0  0.4375 0.21875 0  0.46875 0.21875 0  0.5 0.21875 0  0.53125 0.21875 0  0.5625 0.21875 0  0.59375 0.21875 0  0.625 0.21875 0  0.65625 0.21875 0  0.6875 0.21875 0  0.71875 0.21875 0  0.75 0.21875 0  0.78125 0.21875 0  0.8125 0.21875 0  0.84375 0.21875 0  0.875 0.21875 0  0.90625 0.21875 0  0.9375 0.21875 0  0.96875 0.21875 0  1 0.21875 0  0 0.25 0  0.03125 0.25 0  0.0625 0.25 0  0.09375 0.25 0  0.125 0.25 0  0.15625 0.25 0  0.1875 0.25 0  0.21875 0.25 0  0.25 0.25 0  0.28125 0.25 0  0.3125 0.25 0  0.34375 0.25 0  0.375 0.25 0  0.40625 0.25 0  0.4375 0.25 0  0.46875 0.25 0  0.5 0.25 0  0.53125 0.25 0  0.5625 0.25 0  0.59375 0.25 0  0.625 0.25 0  0.65625 0.25 0  0.6875 0.25 0  0.71875 0.25 0  0.75 0.25 0  0.78125 0.25 0  0.8125 0.25 0  0.84375 0.25 0  0.875 0.25 0  0.90625 0.25 0  0.9375 0.25 0  0.96875 0.25 0  1 0.25 0  0 0.28125 0  0.03125 0.28125 0  0.0625 0.28125 0  0.09375 0.28125 0  0.125 0.28125 0  0.15625 0.28125 0  0.1875 0.28125 0  0.21875 0.28125 0  0.25 0.28125 0  0.28125 0.28125 0  0.3125 0.28125 0  0.34375 0.28125 0  0.375 0.28125 0  0.40625 0.28125 0  0.4375 0.28125 0  0.46875 0.28125 0  0.5 0.28125 0  0.53125 0.28125 0  0.5625 0.28125 0  0.59375 0.28125 0  0.625 0.28125 0  0.65625 0.28125 0  0.6875 0.28125 0  0.71875 0.28125 0  0.75 0.28125 0  0.78125 0.28125 0  0.8125 0.28125 0  0.84375 0.28125 0  0.875 0.28125 0  0.90625 0.28125 0  0.9375 0.28125 0  0.96875 0.28125 0  1 0.28125 0  0 0.3125 0  0.03125 0.3125 0  0.0625 0.3125 0  0.09375 0.3125 0  0.125 0.3125 0  0.15625 0.3125 0  0.1875 0.3125 0  0.21875 0.3125 0  0.25 0.3125 0  0.28125 0.3125 0  0.3125 0.3125 0  0.34375 0.3125 0  0.375 0.3125 0  0.40625 0.3125 0  0.4375 0.3125 0  0.46875 0.3125 0  0.5 0.3125 0  0.53125 0.3125 0  0.5625 0.3125 0  0.59375 0.3125 0  0.625 0.3125 0  0.65625 0.3125 0  0.6875 0.3125 0  0.71875 0.3125 0  0.75 0.3125 0  0.78125 0.3125 0  0.8125 0.3125 0  0.84375 0.3125 0  0.875 0.3125 0  0.90625 0.3125 0  0.9375 0.3125 0  0.96875 0.3125 0  1 0.3125 0  0 0.34375 0  0.03125 0.34375 0  0.0625 0.34375 0  0.09375 0.34375 0  0.125 0.34375 0  0.15625 0.34375 0  0.1875 0.34375 0  0.21875 0.34375 0  0.25 0.34375 0  0.28125 0.34375 0  0.3125 0.34375 0  0.34375 0.34375 0  0.375 0.34375 0  0.40625 0.34375 0  0.4375 0.34375 0  0.46875 0.34375 0  0.5 0.34375 0  0.53125 0.34375 0  0.5625 0.34375 0  0.59375 0.34375 0  0.625 0.34375 0  0.65625 0.34375 0  0.6875 0.34375 0  0.71875 0.34375 0  0.75 0.34375 0  0.78125 0.34375 0  0.8125 0.34375 0  0.84375 0.34375 0  0.875 0.34375 0  0.90625 0.34375 0  0.9375 0.34375 0  0.96875 0.34375 0  1 0.34375 0  0 0.375 0  0.03125 0.375 0  0.0625 0.375 0  0.09375 0.375 0  0.125 0.375 0  0.15625 0.375 0  0.1875 0.375 0  0.21875 0.375 0  0.25 0.375 0  0.28125 0.375 0  0.3125 0.375 0  0.34375 0.375 0  0.375 0.375 0  0.40625 0.375 0  0.4375 0.375 0  0.46875 0.375 0  0.5 0.375 0  0.53125 0.375 0  0.5625 0.375 0  0.59375 0.375 0  0.625 0.375 0  0.65625 0.375 0  0.6875 0.375 0  0.71875 0.375 0  0.75 0.375 0  0.78125 0.375 0  0.8125 0.375 0  0.84375 0.375 0  0.875 0.375 0  0.90625 0.375 0  0.9375 0.375 0  0.96875 0.375 0  1 0.375 0  0 0.40625 0  0.03125 0.40625 0  0.0625 0.40625 0  0.09375 0.40625 0  0.125 0.40625 0  0.15625 0.40625 0  0.1875 0.40625 0  0.21875 0.40625 0  0.25 0.40625 0  0.28125 0.40625 0  0.3125 0.40625 0  0.34375 0.40625 0  0.375 0.40625 0  0.40625 0.40625 0  0.4375 0.40625 0  0.46875 0.40625 0  0.5 0.40625 0  0.53125 0.40625 0  0.5625 0.40625 0  0.59375 0.40625 0  0.625 0.40625 0  0.65625 0.40625 0  0.6875 0.40625 0  0.71875 0.40625 0  0.75 0.40625 0  0.78125 0.40625 0  0.8125 0.40625 0  0.84375 0.40625 0  0.875 0.40625 0  0.90625 0.40625 0  0.9375 0.40625 0  0.96875 0.40625 0  1 0.40625 0  0 0.4375 0  0.03125 0.4375 0  0.0625 0.4375 0  0.09375 0.4375 0  0.125 0.4375 0  0.15625 0.4375 0  0.1875 0.4375 0  0.21875 0.4375 0  0.25 0.4375 0  0.28125 0.4375 0  0.3125 0.4375 0  0.34375 0.4375 0  0.375 0.4375 0  0.40625 0.4375 0  0.4375 0.4375 0  0.46875 0.4375 0  0.5 0.4375 0  0.53125 0.4375 0  0.5625 0.4375 0  0.59375 0.4375 0  0.625 0.4375 0  0.65625 0.4375 0  0.6875 0.4375 0  0.71875 0.4375 0  0.75 0.4375 0  0.78125 0.4375 0  0.8125 0.4375 0  0.84375 0.4375 0  0.875 0.4375 0  0.90625 0.4375 0  0.9375 0.4375 0  0.96875 0.4375 0  1 0.4375 0  0 0.46875 0  0.03125 0.46875 0  0.0625 0.46875 0  0.09375 0.46875 0  0.125 0.46875 0  0.15625 0.46875 0  0.1875 0.46875 0  0.21875 0.46875 0  0.25 0.46875 0  0.28125 0.46875 0  0.3125 0.46875 0  0.34375 0.46875 0  0.375 0.46875 0  0.40625 0.46875 0  0.4375 0.46875 0  0.46875 0.46875 0  0.5 0.46875 0  0.53125 0.46875 0  0.5625 0.46875 0  0.59375 0.46875 0  0.625 0.46875 0  0.65625 0.46875 0  0.6875 0.46875 0  0.71875 0.46875 0  0.75 0.46875 0  0.78125 0.46875 0  0.8125 0.46875 0  0.84375 0.46875 0  0.875 0.46875 0  0.90625 0.46875 0  0.9375 0.46875 0  0.96875 0.46875 0  1 0.46875 0  0 0.5 0  0.03125 0.5 0  0.0625 0.5 0  0.09375 0.5 0  0.125 0.5 0  0.15625 0.5 0  0.1875 0.5 0  0.21875 0.5 0  0.25 0.5 0  0.28125 0.5 0  0.3125 0.5 0  0.34375 0.5 0  0.375 0.5 0  0.40625 0.5 0  0.4375 0.5 0  0.46875 0.5 0  0.5 0.5 0  0.53125 0.5 0  0.5625 0.5 0  0.59375 0.5 0  0.625 0.5 0  0.65625 0.5 0  0.6875 0.5 0  0.71875 0.5 0  0.75 0.5 0  0.78125 0.5 0  0.8125 0.5 0  0.84375 0.5 0  0.875 0.5 0  0.90625 0.5 0  0.9375 0.5 0  0.96875 0.5 0  1 0.5 0  0 0.53125 0  0.03125 0.53125 0  0.0625 0.53125 0  0.09375 0.53125 0  0.125 0.53125 0  0.15625 0.53125 0  0.1875 0.53125 0  0.21875 0.53125 0  0.25 0.53125 0  0.28125 0.53125 0  0.3125 0.53125 0  0.34375 0.53125 0  0.375 0.53125 0  0.40625 0.53125 0  0.4375 0.53125 0  0.46875 0.53125 0  0.5 0.53125 0  0.53125 0.53125 0  0.5625 0.53125 0  0.59375 0.53125 0  0.625 0.53125 0  0.65625 0.53125 0  0.6875 0.53125 0  0.71875 0.53125 0  0.75 0.53125 0  0.78125 0.531
[...]
<PointData  Scalars="u_sol"> 
<DataArray  type="Float64"  Name="u_sol"  format="ascii">-1.5246593050577409e-20  2.0328790734103214e-20  7.6232965252887043e-20  1.3633478784928990e-19  -8.8293805586597714e-20  5.0144350477454590e-19  -1.1011428314305904e-18  2.2612346743201175e-19  3.7715000213619898e-19  -4.8789097761847709e-19  -1.3959102970750873e-18  5.1737831209476733e-19  1.6053788979531156e-18  -2.0870891820345964e-18  2.2564957714854565e-18  3.4694429054836495e-18  -4.7704885473187278e-18  2.3310346708438341e-18  2.8460307027744540e-19  -1.6499937114717757e-18  -2.1182441126258375e-20  1.6263032587282571e-19  -4.0657581468206422e-20  -7.3556616905320873e-22  1.8389154226330218e-22  1.9651164376299779e-18  1.5924219408380895e-19  -3.6422065061441976e-19  9.1055162653604892e-20  1.9142944607947205e-19  8.7667910040820218e-20  -1.9593305165808078e-21  3.3881317890171999e-21  -8.9798381085463817e-06  4.4350423503882239e-05  1.9839764413161529e-04  4.4159449873845127e-04  7.6217307645413154e-04  1.1476492585728454e-03  1.5851237140933013e-03  2.0613224614674489e-03  2.5627054380033469e-03  3.0755680164824260e-03  3.5861609612073591e-03  4.0808250244536871e-03  4.5461434724815633e-03  4.9691137235125657e-03  5.3373398478993332e-03  5.6392476218045384e-03  5.8643239787990586e-03  6.0033828265301774e-03  6.0488593468927846e-03  5.9951350602305293e-03  5.8388961153220875e-03  5.5795274578064854e-03  5.2195457699894914e-03  4.7650742237778532e-03  4.2263626645464509e-03  3.6183558623683271e-03  2.9613171639380998e-03  2.2814977076810335e-03  1.6119034955142117e-03  9.9297100217915165e-04  4.7382797184117591e-04  1.1144365315724273e-04  -2.3063839585377322e-05  -1.6265147576917559e-05  8.0300143081681079e-05  3.5892371364169845e-04  7.9841214560182289e-04  1.3775569678219728e-03  2.0738402969399977e-03  2.8639952261412232e-03  3.7240649090878285e-03  4.6296048635311535e-03  5.5558681340769894e-03  6.4780241990469714e-03  7.3714034010904364e-03  8.2117734258037711e-03  8.9756500067304599e-03  9.6406451462895653e-03  1.0185855962326145e-02  1.0592297529094028e-02  1.0843383279725104e-02  1.0925456792335763e-02  1.0828379053330520e-02  1.0546175591079836e-02  1.0077748174253545e-02  9.4276561415920085e-03  8.6069725669665267e-03  7.6342213957616319e-03  6.5363993058723136e-03  5.3500950709277871e-03  4.1226832650327859e-03  2.9136951137526128e-03  1.7959771684688689e-03  8.5802815475804941e-04  2.0214521816998692e-04  -4.1867454035964415e-05  -2.1928579501559218e-05  1.0824417339281053e-04  4.8367424235842664e-04  1.0756105961584050e-03  1.8554637609915936e-03  2.7929303939228161e-03  3.8567099317244483e-03  5.0145695675535293e-03  6.2336146516220447e-03  7.4805385849528692e-03  8.7219188968298365e-03  9.9245475711953052e-03  1.1055804295004575e-02  1.2084075560741895e-02  1.2979224099626097e-02  1.3713112871565927e-02  1.4260188171735601e-02  1.4598126660892757e-02  1.4708551447838640e-02  1.4577822690434989e-02  1.4197908548123637e-02  1.3567342672370785e-02  1.2692274845454600e-02  1.1587621455903061e-02  1.0278323580000361e-02  8.8007170939359367e-03  7.2040309925665265e-03  5.5519827055216390e-03  3.9246076203288648e-03  2.4198155045017829e-03  1.1565567599018016e-03  2.7259476428741024e-04  -5.6469374011242432e-05  -2.6076630003238094e-05  1.2871168225764816e-04  5.7505066243004617e-04  1.2786381936334347e-03  2.2054479766011872e-03  3.3194618782053575e-03  4.5834978830608872e-03  5.9592706463534430e-03  7.4077073779435952e-03  8.8892430585911161e-03  1.0364172395340435e-02  1.1793042983085179e-02  1.3137099578677629e-02  1.4358782792079529e-02  1.5422287469839079e-02  1.6294185781800641e-02  1.6944120425773777e-02  1.7345573648787117e-02  1.7476718147181970e-02  1.7321356283672599e-02  1.6869954460859857e-02  1.6120779865921388e-02  1.5081147250972562e-02  1.3768783442920570e-02  1.2213318535647361e-02  1.0457908753116649e-02  8.5610104828241773e-03  6.5982693051824543e-03  4.6646936816581771e-03  2.8765186764338666e-03  1.3750469167143251e-03  3.2413323197529644e-04  -6.7149412998452579e-05  -2.8823543642657586e-05  1.4226614280803308e-04  6.3556805835656533e-04  1.4130999045768374e-03  2.4372188764196583e-03  3.6681106059172301e-03  5.0646942050049017e-03  6.5846783205554425e-03  8.1849040301545661e-03  9.8216682015748614e-03  1.1451111431901705e-02  1.3029652415351225e-02  1.4514479152165105e-02  1.5864100385073143e-02  1.7038962966856953e-02  1.8002140635392409e-02  1.8720100143125671e-02  1.9163551004485552e-02  1.9308385517013128e-02  1.9136716109992246e-02  1.8638017495435765e-02  1.7810381487498271e-02  1.6661892836758660e-02  1.5212134472951713e-02  1.3493832022732261e-02  1.1554643388652766e-02  9.4591157864928350e-03  7.2907729208810477e-03  5.1545241324314371e-03  3.1787499635457100e-03  1.5195918737756428e-03  3.5821540717261648e-04  -7.4210780781290244e-05  -3.0285832732721827e-05  1.4948176737349046e-04  6.6778411124304206e-04  1.4846742790839700e-03  2.5605733026796522e-03  3.8536374268953863e-03  5.3207066712240370e-03  6.9173581998482146e-03  8.5982620091036317e-03  1.0317517771949895e-02  1.2029060964124032e-02  1.3687118644632122e-02  1.5246725425683024e-02  1.6664302924179773e-02  1.7898308532544888e-02  1.8909959170883971e-02  1.9664036209290942e-02  2.0129778093602786e-02  2.0281867620171562e-02  2.0101521217415395e-02  1.9577688027880631e-02  1.8708366996377540e-02  1.7502050696726730e-02  1.5979304747550844e-02  1.4174493381054459e-02  1.2137657768671050e-02  9.9365717993709687e-03  7.6589381345743158e-03  5.4149291945952052e-03  3.3393967627304930e-03  1.5963969874039333e-03  3.7631778462150582e-04  -7.7960652779435275e-05  -3.0580615330765300e-05  1.5093595779582371e-04  6.7427214409305353e-04  1.4990721752254289e-03  2.5853526070098616e-03  3.8908516337215651e-03  5.3719877621296154e-03  6.9839116217406049e-03  8.6808623530400426e-03  1.0416505500771967e-02  1.2144341649414223e-02  1.3818165854905397e-02  1.5392588282530123e-02  1.6823619181396070e-02  1.8069323948948508e-02  1.9090553906397467e-02  1.9851758966558823e-02  2.0321888739250202e-02  2.0475389043099920e-02  2.0293301213323775e-02  1.9764472043042287e-02  1.8886882631641500e-02  1.7669104991308311e-02  1.6131895474877516e-02  1.4309935981553680e-02  1.2253730175006671e-02  1.0031680532970577e-02  7.7323099419503412e-03  5.4668349562831771e-03  3.3714066903762067e-03  1.6116822453813872e-03  3.7991400648610296e-04  -7.8704989840342542e-05  -2.9825099900403579e-05  1.4720677479770217e-04  6.5761028045478254e-04  1.4620169605359160e-03  2.5214181564283860e-03  3.7945867229693506e-03  5.2390138988795982e-03  6.8109595671084246e-03  8.4657984621597723e-03  1.0158348262527320e-02  1.1843266986541312e-02  1.3475500325357870e-02  1.5010788993295669e-02  1.6406239037947242e-02  1.7620960618491145e-02  1.8616780652351443e-02  1.9359035296787369e-02  1.9817448601457125e-02  1.9967104092518336e-02  1.9789516470510762e-02  1.9273811058083411e-02  1.8418019088418260e-02  1.7230497540463713e-02  1.5731482518305029e-02  1.3954787141494241e-02  1.1949651428870989e-02  9.7827698702084871e-03  7.5404616635744055e-03  5.3311849946664665e-03  3.2877263064879478e-03  1.5716547099087149e-03  3.7047113829050257e-04  -7.6748062093709573e-05  -2.8136412627651682e-05  1.3887203266202823e-04  6.2037701533079921e-04  1.3792351704046833e-03  2.3786381396765049e-03  3.5796857079148053e-03  4.9422715159356222e-03  6.4251309804643176e-03  7.9861673730735709e-03  9.5827605084980363e-03  1.1172140845382319e-02  1.2711810886672819e-02  1.4160023403032317e-02  1.5476319210878147e-02  1.6622129639146929e-02  1.7561448720019118e-02  1.8261580683138941e-02  1.8693968692776383e-02  1.8835111179641324e-02  1.8667572530946211e-02  1.8181095350311430e-02  1.7373821958405731e-02  1.6253633430440215e-02  1.4839614802377886e-02  1.3163657002185102e-02  1.1272202820227745e-02  9.2281613389433460e-03  7.1129576921628145e-03  5.0289072014954800e-03  3.1012811470036345e-03  1.4825032092274180e-03  3.4944993456796050e-04  -7.2392649643026718e-05  -2.5631548526960279e-05  1.2650900705452571e-04  5.6514947098967026e-04  1.2564522576105433e-03  2.1668808228456305e-03  3.2609928224303160e-03  4.5022485084995527e-03  5.8530550995576089e-03  7.2750637476054845e-03  8.7294503374634614e-03  1.0177255787301125e-02  1.1579769499496455e-02  1.2898964684837203e-02  1.4097988043324483e-02  1.5141708447870460e-02  1.5997329180778456e-02  1.6635068771661904e-02  1.7028915820740176e-02  1.7157463577133450e-02  1.7004830430331755e-02  1.6561672899375192e-02  1.5826298147699317e-02  1.4805883653244247e-02  1.3517812004293616e-02  1.1991130568072952e-02  1.0268142808422960e-02  8.4061534921605306e-03  6.4793373471066437e-03  4.5809025804095203e-03  2.8249718037294293e-03  1.3503996127679815e-03  3.1830605122306314e-04  -6.5940378847375179e-05  -2.2427368097362497e-05  1.1069438259285512e-04  4.9450283435507024e-04  1.0993908545005795e-03  1.8960113924450957e-03  2.8533492399058541e-03  3.9394294782124795e-03  5.1213569597511792e-03  6.3655762548364076e-03  7.6381171865155407e-03  8.9048923122445559e-03  1.0132032159408031e-02  1.1286265897053184e-02  1.2335349628538033e-02  1.3248546359529443e-02  1.3997161602383696e-02  1.4555139013488053e-02  1.4899720757653698e-02  1.5012177638603364e-02  1.4878614385153878e-02  1.4490855869828028e-02  1.3847420442240159e-02  1.2954587105415182e-02  1.1827563576983523e-02  1.0491763830210632e-02  8.9842010726657023e-03  7.3550155417356974e-03  5.6691102302669607e-03  4.0080439477335125e-03  2.4716758504279564e-03  1.1815017768541690e-03  2.7849123319363320e-04  -5.7692012988035543e-05  -1.8640611207069058e-05  9.2004297098550821e-05  4.1101032604192876e-04  9.1377029035659885e-04  1.5758907750293824e-03  2.3715912272249547e-03  3.2742935088747997e-03  4.2566552098251484e-03  5.2907858500757183e-03  6.3484509196183002e-03  7.4013189949284110e-03  8.4212402105678860e-03  9.3805625098131659e-03  1.0252487505275066e-02  1.1011469318121497e-02  1.1633659678961834e-02  1.2097402933310753e-02  1.2383784843733205e-02  1.2477239372233372e-02  1.2366217924964125e-02  1.2043925872373774e-02  1.1509131505728146e-02  1.0767053054495926e-02  9.8303296541634184e-03  8.7200834346451515e-03  7.4670776721298231e-03  6.1129870264000083e-03  4.7117573287887944e-03  3.3311787470899990e-03  2.0542515685164214e-03  9.8195655724818507e-04  2.3145429811897243e-04  -4.7947680349341460e-05  -1.4387916872607418e-05  7.1014422990111072e-05  3.1724340797003204e-04  7.0530673650394426e-04  1.2163755371074844e-03  1.8305497427192835e-03  2.5273135628529463e-03  3.2855615209922934e-03  4.0837654552293955e-03  4.9001320221588717e-03  5.7127933830311518e-03  6.5000220679532119e-03  7.2404750009259300e-03  7.9134681108279144e-03  8.4992841304824401e-03  8.9795161145506067e-03  9.3374494827380139e-03  9.5584855876847518e-03  9.6306100343195485e-03  9.5449092118086633e-03  9.2961387598281785e-03  8.8833479648264269e-03  8.3105644439161949e-03  7.5875436784335042e-03  6.7305889381792791e-03  5.7634453946467023e-03  4.7182807301160510e-03  3.6367347383689497e-03  2.5711333117853577e-03  1.5855419181963722e-03  7.5790244526711850e-04  1.7864190904132328e-04  -3.7007047500456103e-05  -9.7858444089154695e-06  4.8300060679125036e-05  2.1577209334676733e-04  4.7971366071601770e-04  8.2731836780761819e-04  1.2450508734853090e-03  1.7189568850457921e-03  2.2346810499981129e-03  2.7775806224065594e-03  3.3328326176047781e-03  3.8855635001380589e-03  4.4209953015883954e-03  4.9246115695343370e-03  5.3823441237550078e-03  5.7807823915839102e-03  6.1074070429030574e-03  6.3508498313964738e-03  6.5011816796467824e-03  6.5502312010132062e-03  6.4919360120437603e-03  6.3227293683907164e-03  6.0419648456495507e-03  5.6523820341903667e-03  5.1606163554036681e-03  4.5777567678139839e-03  3.9199539355742634e-03  3.2090872015440772e-03  2.4734784132057633e-03  1.7487174189371240e-03  1.0783782249333682e-03  5.1547176987125668e-04  1.2149917793820849e-04  -2.5169451582269079e-05  -4.9508942264043307e-06  2.4436233578530515e-05  1.0916529568105126e-04  2.4270242836584182e-04  4.1856886879594423e-04  6.2991674936377948e-04  8.6968601529768515e-04  1.1306135745490148e-03  1.4052908572796347e-03  1.6862180639124272e-03  1.9658697995966696e-03  2.2367690151397770e-03  2.4915709794119455e-03  2.7231577799212872e-03  2.9247442492316800e-03  3.0899961877114399e-03  3.2131618462988621e-03  3.2892176984470841e-03  3.3140296083952712e-03  3.2845305838881417e-03  3.1989163920664388e-03  3.0568604128855003e-03  2.8597492302806669e-03  2.6109405318656960e-03  2.3160452225871281e-03  1.9832350521938823e-03  1.6235799751201747e-03  1.2514091947224400e-03  8.8472869512643167e-04  5.4558346650359583e-04  2.6079253217353786e-04  6.1470145398471860e-05  -1.2734003668780502e-05  4.7221573738341193e-10  -2.2189600938795401e-09  -8.8113314354172964e-09  -1.7031509048788078e-08  -2.5499955678901939e-08  -3.3281583632187946e-08  -3.9845442386333989e-08  -4.4960865935653566e-08  -4.8636732589727818e-08  -5.1064089610422041e-08  -5.2566696932557605e-08  -5.3554708396909705e-08  -5.4480286803855364e-08  -5.5793471202292230e-08  -5.7897245498272075e-08  -6.1101499937340803e-08  -6.5576879509595671e-08  -7.1311250304182637e-08  -7.8073541996963434e-08  -8.5391734844903985e-08  -9.2553346334612431e-08  -9.8637460950149189e-08  -1.0258664842729886e-07  -1.0332462168733665e-07  -9.9920747021636220e-08  -9.1795364814899051e-08  -7.8948368398767347e-08  -6.2179446183824090e-08  -4.3233014476636807e-08  -2.4790310543985882e-08  -1.0030317661502749e-08  -1.8240099082673643e-09  3.2712542309534305e-10  4.9518132359555629e-06  -2.4440551335204433e-05  -1.0918243380365732e-04  -2.4273553478564548e-04  -4.1861840094567905e-04  -6.2998134366686032e-04  -8.6976327772180775e-04  -1.1307006676821978e-03  -1.4053849679216378e-03  -1.6863167579914127e-03  -1.9659712802490644e-03  -2.2368722904424925e-03  -2.4916759437786395e-03  -2.7232652097192206e-03  -2.9248557109563880e-03  -3.0901138563259041e-03  -3.2132882332153276e-03  -3.2893552939685564e-03  -3.3141804528141789e-03  -3.2846957948338890e-03  -3.1990956922634721e-03  -3.0570517204350227e-03  -2.8599483901229541e-03  -2.6111412785804976e-03  -2.3162394666081621e-03  -1.9834135690065561e-03  -1.6237335416021314e-03  -1.2515301537765087e-03  -8.8481279839240103e-04  -5.4563169412997039e-04  -2.6081205125442065e-04  -6.1473697836284959e-05  1.2734641143994275e-05  9.7866882224702554e-06  -4.8304023110958741e-05  -2.1578779979580256e-04  -4.7974394347598037e-04  -8.2736357206777348e-04  -1.2451096688592862e-03  -1.7190270032810314e-03  -2.2347598318992216e-03  -2.7776654513225435e-03  -3.3329212465001076e-03  -3.8856542880386351e-03  -4.4210873664792339e-03  -4.9247048621091144e-03  -5.3824394227095680e-03  -5.7808812185997900e-03  -6.1075114944142373e-03  -6.3509623257676376e-03  -6.5013046233561743e-03  -6.5503665863926022e-03  -6.4920849720715035e-03  -6.3228917301578341e-03  -6.0421387416532716e-03  -5.6525636467357259e-03  -5.1607998803623557e-03  -4.5779346851219866e-03  -3.9201176602395591e-03  -3.2092281527477578e-03  -2.4735894766099815e-03  -1.7487946533803957e-03  -1.0784225260614239e-03  -5.1548972208311969e-04  -1.2150245531073545e-04  2.5170040963634589e-05  1.4388638977920885e-05  -7.1017810670907235e-05  -3.1725680230546428e-04  -7.0533246831343873e-04  -1.2164137810345113e-03  -1.8305992331622254e-03  -2.5273722447645580e-03  -3.2856270310497853e-03  -4.0838354998311704e-03  -4.9002046595136668e-03  -5.7128672249006076e-03  -6.5000964089229497e-03  -7.2405498801151134e-03  -7.9135443068927714e-03  -8.4993630877605222e-03  -8.9795997966724828e-03  -9.3375401510414555e-03  -9.5585855061049475e-03  -9.6307211106405732e-03  -9.5450325972780206e-03  -9.2962744444339551e-03  -8.8834944223319182e-03  -8.3107183962314694e-03  -7.5877000592070882e-03  -6.7307411357292457e-03  -5.7635858394538761e-03  -4.7184018550836685e-03  -3.6368302785427953e-03  -2.5711997977060940e-03  -1.5855800968029498e-03  -7.5791796942062200e-04  -1.7864476485590953e-04  3.7007563756775393e-05  1.8641170694730387e-05  -9.2006917577804387e-05  -4.1102064162063532e-04  -9.1378998099396664e-04  -1.5759198099372057e-03  -2.3716284494402933e-03  -3.2743371671845618e-03  -4.2567033506050725e-03  -5.2908366206248910e-03  -6.3485027903755851e-03  -7.4013709154960557e-03  -8.4212917081718467e-03  -9.3806137355556471e-03  -1.0252539229151611e-02  -1.1011522870291897e-02  -1.1633716832725941e-02  -1.2097465725589717e-02  -1.2383855332313128e-02  -1.2477319336114161e-02  -1.2366308524962424e-02  -1.2044027303098342e-02  -1.1509242685681735e-02  -1.0767171415699519e-02  -9.8304511024391236e-03  -8.7202025514518163e-03  -7.4671882132562560e-03  -6.1130827356776982e-03  -4.7118330251210731e-03  -3.3312315447762285e-03  -2.0542819925824093e-03  -9.8196903533907527e-04  -2.3145663409966039e-04  4.7948107564400694e-05  2.2427732219280841e-05  -1.1069608260105592e-04  -4.9450946866369983e-04  -1.0994033526911581e-03  -1.8960295133249687e-03  -2.8533719923470808e-03  -3.9394555058679080e-03  -5.1213848233136764e-03  -6.3656046449673924e-03  -7.6381450745952846e-03  -8.9049190525452085e-03  -1.0132057551709294e-02  -1.1286290215224593e-02  -1.2335373616067829e-02  -1.3248571189166836e-02  -1.3997188794581618e-02  -1.4555170307962785e-02  -1.4899757934717124e-02  -1.5012222292445520e-02  -1.4878667660157847e-02  -1.4490918182963603e-02  -1.3847491228476911e-02  -1.2954664636610803e-02  -1.1827644914139200e-02  -1.0491844969212656e-02  -8.9842773288906219e-03  -7.3550821834507483e-03  -5.6691633139090208e-03  -4.0080812257111851e-03  -2.4716975463267522e-03  -1.1815108696100300e-03  -2.7849300467655254e-04  5.7692345195796185e-05  2.5631695484631067e-05  -1.2650968569092818e-04  -5.6515203887101966e-04  -1.2564568558649097e-03  -2.1668870282099315e-03  -3.2609998776284145e-03  -4.5022555371959762e-03  -5.8530612638069794e-03  -7.2750683594633939e-03  -8.7294529310557138e-03  -1.0177256162639727e-02  -1.1579767746764258e-02  -1.2898961194363843e-02  -1.4097983502113281e-02  -1.5141703819701625e-02  -1.5997325664204792e-02  -1.6635067729154407e-02  -1.7028918673263241e-02  -1.7157471661939684e-02  -1.7004844826075140e-02  -1.6561694231761102e-02  -1.5826326400215890e-02  -1.4805918019404287e-02  -1.3517850827137709e-02  -1.1991171414639189e-02  -1.0268182715437200e-02  -8.4061893886490883e-03  -6.4793666084912351e-03  -4.5809236032160524e-03  -2.8249844343477470e-03  -1.3504052392466414e-03  -3.1830725967443326e-04  6.5940618234574885e-05  2.8136334505828554e-05  -1.3887165511639694e-04  -6.2037540280304075e-04  -1.3792317072198934e-03  -2.3786322813504567e-03  -3.5796770031709642e-03  -4.9422596379182877e-03  -6.4251157511454110e-03  -7.9861487689085967e-03  -9.5827386519098130e-03  -1.1172115989849031e-02  -1.2711783402910305e-02  -1.4159993770617992e-02  -1.5476288015966155e-02  -1.6622097575524537e-02  -1.7561416588143069e-02  -1.8261549380174279e-02  -1.8693939186248669e-02  -1.8835084458407141e-02  -1.8667549530196743e-02  -1.8181076852640265e-02  -1.7373808480658712e-02  -1.6253625115438972e-02  -1.4839611343622848e-02  -1.3163657634436429e-02  -1.1272206403615034e-02  -9.2281665431431098e-03  -7.1129632464101934e-03  -5.0289121295212652e-03  -3.1012848660198246e-03  -1.4825054652785534e-03  -3.4945060567578644e-04  7.2392801769691648e-05  2.9824805511346421e-05  -1.4720538544338833e-04  -6.5760469392659403e-04  -1.4620059087227294e-03  -2.5214010610162918e-03  -3.7945635041374067e-03  -5.2389848206480499e-03  -6.8109251294443257e-03  -8.4657593034553214e-03  -1.0158305074398098e-02  -1.1843220444041345e-02  -1.3475451037885507e-02  -1.5010737479110131e-02  -1.6406185722740392e-02  -1.7620905856016191e-02  -1.8616724762999415e-02  -1.9358978618060598e-02  -1.9817391542449207e-02  -1.9967047182927654e-02  -1.9789460393848299e-02  -1.9273756659309044e-02  -1.8417967349070159e-02  -1.7230449519907827e-02  -1.5731439267562992e-02  -1.395474960406