<?xml version="1.0"?>
<VTKFile type="UnstructuredGrid"  version="0.1"  >
<UnstructuredGrid>
<Piece  NumberOfPoints="1089" NumberOfCells="1024">
<Points>
<DataArray  type="Float64"  NumberOfComponents="3"  format="ascii">0 0 0  0.03125 0 0  0.0625 0 0  0.09375 0 0  0.125 0 0  0.15625 0 0  0.1875 0 0  0.21875 0 0  0.25 0 0  0.28125 0 0  0.3125 0 0  0.34375 0 0  0.375 0 0  0.40625 0 0  0.4375 0 0  0.46875 0 0  0.5 0 0  0.53125 0 0  0.5625 0 0  0.59375 0 0  0.625 0 0  0.65625 0 0  0.6875 0 0  0.71875 0 0  0.75 0 0  0.78125 0 0  0.8125 0 0  0.84375 0 0  0.875 0 0  0.90625 0 0  0.9375 0 0  0.96875 0 0  1 0 0  0 0.03125 0  0.03125 0.03125 0  0.0625 0.03125 0  0.09375 0.03125 0  0.125 0.03125 0  0.15625 0.03125 0  0.1875 0.03125 0  0.21875 0.03125 0  0.25 0.03125 0  0.28125 0.03125 0  0.3125 0.03125 0  0.34375 0.03125 0  0.375 0.03125 0  0.40625 0.03125 0  0.4375 0.03125 0  0.46875 0.03125 0  0.5 0.03125 0  0.53125 0.03125 0  0.5625 0.03125 0  0.59375 0.03125 0  0.625 0.03125 0  0.65625 0.03125 0  0.6875 0.03125 0  0.71875 0.03125 0  0.75 0.03125 0  0.78125 0.03125 0  0.8125 0.03125 0  0.84375 0.03125 0  0.875 0.03125 0  0.90625 0.03125 0  0.9375 0.03125 0  0.96875 0.03125 0  1 0.03125 0  0 0.0625 0  0.03125 0.0625 0  0.0625 0.0625 0  0.09375 0.0625 0  0.125 0.0625 0  0.15625 0.0625 0  0.1875 0.0625 0  0.21875 0.0625 0  0.25 0.0625 0  0.28125 0.0625 0  0.3125 0.0625 0  0.34375 0.0625 0  0.375 0.0625 0  0.40625 0.0625 0  0.4375 0.0625 0  0.46875 0.0625 0  0.5 0.0625 0  0.53125 0.0625 0  0.5625 0.0625 0  0.59375 0.0625 0  0.625 0.0625 0  0.65625 0.0625 0  0.6875 0.0625 0  0.71875 0.0625 0  0.75 0.0625 0  0.78125 0.0625 0  0.8125 0.0625 0  0.84375 0.0625 0  0.875 0.0625 0  0.90625 0.0625 0  0.9375 0.0625 0  0.96875 0.0625 0  1 0.0625 0  0 0.09375 0  0.03125 0.09375 0  0.0625 0.09375 0  0.09375 0.09375 0  0.125 0.09375 0  0.15625 0.09375 0  0.1875 0.09375 0  0.21875 0.09375 0  0.25 0.09375 0  0.28125 0.09375 0  0.3125 0.09375 0  0.34375 0.09375 0  0.375 0.09375 0  0.40625 0.09375 0  0.4375 0.09375 0  0.46875 0.09375 0  0.5 0.09375 0  0.53125 0.09375 0  0.5625 0.09375 0  0.59375 0.09375 0  0.625 0.09375 0  0.65625 0.09375 0  0.6875 0.09375 0  0.71875 0.09375 0  0.75 0.09375 0  0.78125 0.09375 0  0.8125 0.09375 0  0.84375 0.09375 0  0.875 0.09375 0  0.90625 0.09375 0  0.9375 0.09375 0  0.96875 0.09375 0  1 0.09375 0  0 0.125 0  0.03125 0.125 0  0.0625 0.125 0  0.09375 0.125 0  0.125 0.125 0  0.15625 0.125 0  0.1875 0.125 0  0.21875 0.125 0  0.25 0.125 0  0.28125 0.125 0  0.3125 0.125 0  0.34375 0.125 0  0.375 0.125 0  0.40625 0.125 0  0.4375 0.125 0  0.46875 0.125 0  0.5 0.125 0  0.53125 0.125 0  0.5625 0.125 0  0.59375 0.125 0  0.625 0.125 0  0.65625 0.125 0  0.6875 0.125 0  0.71875 0.125 0  0.75 0.125 0  0.78125 0.125 0  0.8125 0.125 0  0.84375 0.125 0  0.875 0.125 0  0.90625 0.125 0  0.9375 0.125 0  0.96875 0.125 0  1 0.125 0  0 0.15625 0  0.03125 0.15625 0  0.0625 0.15625 0  0.09375 0.15625 0  0.125 0.15625 0  0.15625 0.15625 0  0.1875 0.15625 0  0.21875 0.15625 0  0.25 0.15625 0  0.28125 0.15625 0  0.3125 0.15625 0  0.34375 0.15625 0  0.375 0.15625 0  0.40625 0.15625 0  0.4375 0.15625 0  0.46875 0.15625 0  0.5 0.15625 0  0.53125 0.15625 0  0.5625 0.15625 0  0.59375 0.15625 0  0.625 0.15625 0  0.65625 0.15625 0  0.6875 0.15625 0  0.71875 0.15625 0  0.75 0.15625 0  0.78125 0.15625 0  0.8125 0.15625 0  0.84375 0.15625 0  0.875 0.15625 0  0.90625 0.15625 0  0.9375 0.15625 0  0.96875 0.15625 0  1 0.15625 0  0 0.1875 0  0.03125 0.1875 0  0.0625 0.1875 0  0.09375 0.1875 0  0.125 0.1875 0  0.15625 0.1875 0  0.1875 0.1875 0  0.21875 0.1875 0  0.25 0.1875 0  0.28125 0.1875 0  0.3125 0.1875 0  0.34375 0.1875 0  0.375 0.1875 0  0.40625 0.1875 0  0.4375 0.1875 0  0.46875 0.1875 0  0.5 0.1875 0  0.53125 0.1875 0  0.5625 0.1875 0  0.59375 0.1875 0  0.625 0.1875 0  0.65625 0.1875 0  0.6875 0.1875 0  0.71875 0.1875 0  0.75 0.1875 0  0.78125 0.1875 0  0.8125 0.1875 0  0.84375 0.1875 0  0.875 0.1875 0  0.90625 0.1875 0  0.9375 0.1875 0  0.96875 0.1875 0  1 0.1875 0  0 0.21875 0  0.03125 0.21875 0  0.0625 0.21875 0  0.09375 0.21875 0  0.125 0.21875 0  0.15625 0.21875 0  0.1875 0.21875 0  0.21875 0.21875 0  0.25 0.21875 0  0.28125 0.21875 0  0.3125 0.21875 0  0.34375 0.21875 0  0.375 0.21875 0  0.40625 0.21875 0  0.4375 0.21875 0  0.46875 0.21875 0  0.5 0.21875 0  0.53125 0.21875 0  0.5625 0.21875 0  0.59375 0.21875 0  0.625 0.21875 0  0.65625 0.21875 0  0.6875 0.21875 0  0.71875 0.21875 0  0.75 0.21875 0  0.78125 0.21875 0  0.8125 0.21875 0  0.84375 0.21875 0  0.875 0.21875 0  0.90625 0.21875 0  0.9375 0.21875 0  0.96875 0.21875 0  1 0.21875 0  0 0.25 0  0.03125 0.25 0  0.0625 0.25 0  0.09375 0.25 0  0.125 0.25 0  0.15625 0.25 0  0.1875 0.25 0  0.21875 0.25 0  0.25 0.25 0  0.28125 0.25 0  0.3125 0.25 0  0.34375 0.25 0  0.375 0.25 0  0.40625 0.25 0  0.4375 0.25 0  0.46875 0.25 0  0.5 0.25 0  0.53125 0.25 0  0.5625 0.25 0  0.59375 0.25 0  0.625 0.25 0  0.65625 0.25 0  0.6875 0.25 0  0.71875 0.25 0  0.75 0.25 0  0.78125 0.25 0  0.8125 0.25 0  0.84375 0.25 0  0.875 0.25 0  0.90625 0.25 0  0.9375 0.25 0  0.96875 0.25 0  1 0.25 0  0 0.28125 0  0.03125 0.28125 0  0.0625 0.28125 0  0.09375 0.28125 0  0.125 0.28125 0  0.15625 0.28125 0  0.1875 0.28125 0  0.21875 0.28125 0  0.25 0.28125 0  0.28125 0.28125 0  0.3125 0.28125 0  0.34375 0.28125 0  0.375 0.28125 0  0.40625 0.28125 0  0.4375 0.28125 0  0.46875 0.28125 0  0.5 0.28125 0  0.53125 0.28125 0  0.5625 0.28125 0  0.59375 0.28125 0  0.625 0.28125 0  0.65625 0.28125 0  0.6875 0.28125 0  0.71875 0.28125 0  0.75 0.28125 0  0.78125 0.28125 0  0.8125 0.28125 0  0.84375 0.28125 0  0.875 0.28125 0  0.90625 0.28125 0  0.9375 0.28125 0  0.96875 0.28125 0  1 0.28125 0  0 0.3125 0  0.03125 0.3125 0  0.0625 0.3125 0  0.09375 0.3125 0  0.125 0.3125 0  0.15625 0.3125 0  0.1875 0.3125 0  0.21875 0.3125 0  0.25 0.3125 0  0.28125 0.3125 0  0.3125 0.3125 0  0.34375 0.3125 0  0.375 0.3125 0  0.40625 0.3125 0  0.4375 0.3125 0  0.46875 0.3125 0  0.5 0.3125 0  0.53125 0.3125 0  0.5625 0.3125 0  0.59375 0.3125 0  0.625 0.3125 0  0.65625 0.3125 0  0.6875 0.3125 0  0.71875 0.3125 0  0.75 0.3125 0  0.78125 0.3125 0  0.8125 0.3125 0  0.84375 0.3125 0  0.875 0.3125 0  0.90625 0.3125 0  0.9375 0.3125 0  0.96875 0.3125 0  1 0.3125 0  0 0.34375 0  0.03125 0.34375 0  0.0625 0.34375 0  0.09375 0.34375 0  0.125 0.34375 0  0.15625 0.34375 0  0.1875 0.34375 0  0.21875 0.34375 0  0.25 0.34375 0  0.28125 0.34375 0  0.3125 0.34375 0  0.34375 0.34375 0  0.375 0.34375 0  0.40625 0.34375 0  0.4375 0.34375 0  0.46875 0.34375 0  0.5 0.34375 0  0.53125 0.34375 0  0.5625 0.34375 0  0.59375 0.34375 0  0.625 0.34375 0  0.65625 0.34375 0  0.6875 0.34375 0  0.71875 0.34375 0  0.75 0.34375 0  0.78125 0.34375 0  0.8125 0.34375 0  0.84375 0.34375 0  0.875 0.34375 0  0.90625 0.34375 0  0.9375 0.34375 0  0.96875 0.34375 0  1 0.34375 0  0 0.375 0  0.03125 0.375 0  0.0625 0.375 0  0.09375 0.375 0  0.125 0.375 0  0.15625 0.375 0  0.1875 0.375 0  0.21875 0.375 0  0.25 0.375 0  0.28125 0.375 0  0.3125 0.375 0  0.34375 0.375 0  0.375 0.375 0  0.40625 0.375 0  0.4375 0.375 0  0.46875 0.375 0  0.5 0.375 0  0.53125 0.375 0  0.5625 0.375 0  0.59375 0.375 0  0.625 0.375 0  0.65625 0.375 0  0.6875 0.375 0  0.71875 0.375 0  0.75 0.375 0  0.78125 0.375 0  0.8125 0.375 0  0.84375 0.375 0  0.875 0.375 0  0.90625 0.375 0  0.9375 0.375 0  0.96875 0.375 0  1 0.375 0  0 0.40625 0  0.03125 0.40625 0  0.0625 0.40625 0  0.09375 0.40625 0  0.125 0.40625 0  0.15625 0.40625 0  0.1875 0.40625 0  0.21875 0.40625 0  0.25 0.40625 0  0.28125 0.40625 0  0.3125 0.40625 0  0.34375 0.40625 0  0.375 0.40625 0  0.40625 0.40625 0  0.4375 0.40625 0  0.46875 0.40625 0  0.5 0.40625 0  0.53125 0.40625 0  0.5625 0.40625 0  0.59375 0.40625 0  0.625 0.40625 0  0.65625 0.40625 0  0.6875 0.40625 0  0.71875 0.40625 0  0.75 0.40625 0  0.78125 0.40625 0  0.8125 0.40625 0  0.84375 0.40625 0  0.875 0.40625 0  0.90625 0.40625 0  0.9375 0.40625 0  0.96875 0.40625 0  1 0.40625 0  0 0.4375 0  0.03125 0.4375 0  0.0625 0.4375 0  0.09375 0.4375 0  0.125 0.4375 0  0.15625 0.4375 0  0.1875 0.4375 0  0.21875 0.4375 0  0.25 0.4375 0  0.28125 0.4375 0  0.3125 0.4375 0  0.34375 0.4375 0  0.375 0.4375 0  0.40625 0.4375 0  0.4375 0.4375 0  0.46875 0.4375 0  0.5 0.4375 0  0.53125 0.4375 0  0.5625 0.4375 0  0.59375 0.4375 0  0.625 0.4375 0  0.65625 0.4375 0  0.6875 0.4375 0  0.71875 0.4375 0  0.75 0.4375 0  0.78125 0.4375 0  0.8125 0.4375 0  0.84375 0.4375 0  0.875 0.4375 0  0.90625 0.4375 0  0.9375 0.4375 0  0.96875 0.4375 0  1 0.4375 0  0 0.46875 0  0.03125 0.46875 0  0.0625 0.46875 0  0.09375 0.46875 0  0.125 0.46875 0  0.15625 0.46875 0  0.1875 0.46875 0  0.21875 0.46875 0  0.25 0.46875 0  0.28125 0.46875 0  0.3125 0.46875 0  0.34375 0.46875 0  0.375 0.46875 0  0.40625 0.46875 0  0.4375 0.46875 0  0.46875 0.46875 0  0.5 0.46875 0  0.53125 0.46875 0  0.5625 0.46875 0  0.59375 0.46875 0  0.625 0.46875 0  0.65625 0.46875 0  0.6875 0.46875 0  0.71875 0.46875 0  0.75 0.46875 0  0.78125 0.46875 0  0.8125 0.46875 0  0.84375 0.46875 0  0.875 0.46875 0  0.90625 0.46875 0  0.9375 0.46875 0  0.96875 0.46875 0  1 0.46875 0  0 0.5 0  0.03125 0.5 0  0.0625 0.5 0  0.09375 0.5 0  0.125 0.5 0  0.15625 0.5 0  0.1875 0.5 0  0.21875 0.5 0  0.25 0.5 0  0.28125 0.5 0  0.3125 0.5 0  0.34375 0.5 0  0.375 0.5 0  0.40625 0.5 0  0.4375 0.5 0  0.46875 0.5 0  0.5 0.5 0  0.53125 0.5 0  0.5625 0.5 0  0.59375 0.5 0  0.625 0.5 0  0.65625 0.5 0  0.6875 0.5 0  0.71875 0.5 0  0.75 0.5 0  0.78125 0.5 0  0.8125 0.5 0  0.84375 0.5 0  0.875 0.5 0  0.90625 0.5 0  0.9375 0.5 0  0.96875 0.5 0  1 0.5 0  0 0.53125 0  0.03125 0.53125 0  0.0625 0.53125 0  0.09375 0.53125 0  0.125 0.53125 0  0.15625 0.53125 0  0.1875 0.53125 0  0.21875 0.53125 0  0.25 0.53125 0  0.28125 0.53125 0  0.3125 0.53125 0  0.34375 0.53125 0  0.375 0.53125 0  0.40625 0.53125 0  0.4375 0.53125 0  0.46875 0.53125 0  0.5 0.53125 0  0.53125 0.53125 0  0.5625 0.53125 0  0.59375 0.53125 0  0.625 0.53125 0  0.65625 0.53125 0  0.6875 0.53125 0  0.71875 0.53125 0  0.75 0.53125 0  0.78125 0.531
[...]
<PointData  Scalars="v_sol"> 
<DataArray  type="Float64"  Name="v_sol"  format="ascii">6.7762635780344042e-21  9.1534148735112678e-06  1.7398250307893348e-05  2.4640326778896739e-05  3.0823304782177231e-05  3.5903578308840497e-05  3.9845916377629983e-05  4.2622947090435102e-05  4.4215839445230330e-05  4.4615402117126956e-05  4.3823398527632726e-05  4.1854014416398125e-05  3.8735462052012544e-05  3.4511721244197316e-05  2.9244423828848482e-05  2.3014891236684144e-05  1.5926336458577765e-05  8.1062430226776806e-06  -2.9106513621156110e-07  -9.0816476278614593e-06  -1.8048948431076467e-05  -2.6940554640644928e-05  -3.5464691783804921e-05  -4.3286431588445502e-05  -5.0023585466681109e-05  -5.5242255905020262e-05  -5.8452026243245609e-05  -5.9100799418318753e-05  -5.6569472124997673e-05  -5.0167016148113516e-05  -3.9130081283510270e-05  -2.2636895073041504e-05  -1.0164395367051600e-20  0.0000000000000000e+00  -4.4697576981673779e-05  -8.4927033305646485e-05  -1.2026257208220596e-04  -1.5043211439310424e-04  -1.7522231328829361e-04  -1.9446039850684745e-04  -2.0801219414535771e-04  -2.1578542191768479e-04  -2.1773500001406288e-04  -2.1386940939178449e-04  -2.0425782269982036e-04  -1.8903791275767521e-04  -1.6842433682958568e-04  -1.4271792606183493e-04  -1.1231562493159804e-04  -7.7721234518395436e-05  -3.9557020077759849e-05  1.4237503880086383e-06  4.4323263226464946e-05  8.8084531014257419e-05  1.3147558961376294e-04  1.7307242098250051e-04  2.1124049228133453e-04  2.4411479525465068e-04  2.6957827681423318e-04  2.8523861159709111e-04  2.8840346489806168e-04  2.7605524020140335e-04  2.4482849024312604e-04  1.9100721943823062e-04  1.1058976415041376e-04  -2.7105054312137599e-20  -8.8091426514447235e-20  -1.9482192190711992e-04  -3.6987747302522734e-04  -5.2362214247018946e-04  -6.5490268734365808e-04  -7.6278679759062148e-04  -8.4651498401800763e-04  -9.0549760325181320e-04  -9.3932932182173401e-04  -9.4781167999527949e-04  -9.3098034806193429e-04  -8.8913585081864589e-04  -8.2287736294638807e-04  -7.3313952147610205e-04  -6.2123235484917022e-04  -4.8888450470172744e-04  -3.3828996117820785e-04  -1.7215856433650504e-04  6.2294485376437554e-06  1.9296454331269551e-04  3.8344430337123377e-04  5.7230479667491564e-04  7.5334651004193231e-04  9.1945445459429547e-04  1.0625120761141797e-03  1.1733087446796520e-03  1.2414410306224092e-03  1.2552092354600145e-03  1.2015141561217831e-03  1.0657702019925860e-03  8.3188373792536367e-04  4.8247983672675604e-04  0.0000000000000000e+00  9.0044638884284965e-20  -4.2062711167213527e-04  -7.9809507066861849e-04  -1.1295341634261415e-03  -1.4125525133342029e-03  -1.6451482212755883e-03  -1.8256747995328291e-03  -1.9528510215469626e-03  -2.0257954364487529e-03  -2.0440751554028948e-03  -2.0077641430873137e-03  -1.9175089900540124e-03  -1.7746014295271042e-03  -1.5810574752769132e-03  -1.3397033639794417e-03  -1.0542686512947218e-03  -7.2948691156885957e-04  -3.7120456175014855e-04  1.3501612713480533e-05  4.1619760144366434e-04  8.2695530791637782e-04  1.2342049729460844e-03  1.6245761587819119e-03  1.9827266099531797e-03  2.2911584716287332e-03  2.5300217958816010e-03  2.6769063796616716e-03  2.7066256506372188e-03  2.5910028023725588e-03  2.2986850150232799e-03  1.7950486058220720e-03  1.0423380294192787e-03  -3.4720018577265739e-19  -1.2443374289675697e-19  -7.0395666241872745e-04  -1.3352150854805858e-03  -1.8893550311245033e-03  -2.3625155101076331e-03  -2.7513834100777899e-03  -3.0532062526218849e-03  -3.2658337881711218e-03  -3.3877838717277144e-03  -3.4183262661258325e-03  -3.3575804175338623e-03  -3.2066252003661393e-03  -2.9676198521647206e-03  -2.6439360218970189e-03  -2.2403012587569569e-03  -1.7629545105475809e-03  -1.2198143577763906e-03  -6.2066082240635014e-04  2.2668320763081607e-05  6.9606572843854532e-04  1.3829261094357081e-03  2.0639001903130379e-03  2.7166299542355906e-03  3.3154642045998208e-03  3.8311538392139873e-03  4.2305269826190045e-03  4.4761457500244323e-03  4.5259497615839596e-03  4.3328981811861077e-03  3.8446338084947049e-03  3.0032103225993791e-03  1.7448951575437927e-03  1.6263032587282559e-19  -2.5990536291458814e-20  -1.0276219757575620e-03  -1.9486954732220749e-03  -2.7570750897675860e-03  -3.4472687392259464e-03  -4.0144954944232314e-03  -4.4547521837991202e-03  -4.7648993356280683e-03  -4.9427681454955377e-03  -4.9872869535928649e-03  -4.8986252752289483e-03  -4.6783541847667427e-03  -4.3296226342988001e-03  -3.8573498778220116e-03  -3.2684345755804776e-03  -2.5719814288115857e-03  -1.7795463906489005e-03  -9.0540164620939189e-04  3.3178328442597236e-05  1.0156082261421604e-03  2.0176594199045224e-03  3.0111020361659607e-03  3.9633201544497189e-03  4.8368988902474947e-03  5.5891825608432614e-03  6.1718040222347968e-03  6.5301869113755144e-03  6.6030253658908690e-03  6.3217499795113928e-03  5.6099933531928983e-03  4.3830628900797409e-03  2.5474072539005024e-03  9.6453446912354704e-19  -1.4600478423592766e-20  -1.3758805426499292e-03  -2.6087374756979457e-03  -3.6905787236712556e-03  -4.6141815488153128e-03  -5.3732066820868628e-03  -5.9623181761837346e-03  -6.3773181652892110e-03  -6.6153008868020105e-03  -6.6748271861943103e-03  -6.5561195542144183e-03  -6.2612776150251853e-03  -5.7945142924508463e-03  -5.1624132572369906e-03  -4.3742085882362627e-03  -3.4420878446083970e-03  -2.3815199552106696e-03  -1.2116094996478953e-03  4.4520907498626451e-05  1.3593183096812075e-03  2.7003552864805266e-03  4.0298521051982316e-03  5.3041633011713931e-03  6.4732270500882632e-03  7.4799761288731458e-03  8.2597100318451341e-03  8.7394290231090598e-03  8.8371324944208143e-03  8.4610853643123460e-03  7.5090546207374808e-03  5.8675103505057497e-03  3.4107650030839724e-03  -2.3852447794681086e-18  5.1807331898003174e-19  -1.7343348414063956e-03  -3.2880774076602930e-03  -4.6513326519005277e-03  -5.8151068708198412e-03  -6.7714697709894559e-03  -7.5137237512750091e-03  -8.0365877820777337e-03  -8.3364005982935249e-03  -8.4113458311881086e-03  -8.2617004933072530e-03  -7.8901077870774678e-03  -7.3018751956928892e-03  -6.5052989949575240e-03  -5.5120165561335721e-03  -4.3373880358078586e-03  -3.0009092514204634e-03  -1.5266577176916451e-03  5.6226030106911423e-05  1.7130195778457149e-03  3.4028599055183637e-03  5.0781424252425086e-03  6.6838754640120056e-03  8.1569880308510947e-03  9.4255890205929265e-03  1.0408176490959757e-02  1.1012796234607814e-02  1.1136149254191983e-02  1.0662647036960833e-02  9.4634103730117190e-03  7.3951997577763606e-03  4.2992539121089850e-03  6.9560878465171968e-19  4.5660689510782706e-19  -2.0899678272395879e-03  -3.9620598439159991e-03  -5.6044864275266197e-03  -7.0065001226862341e-03  -8.1585992368983715e-03  -9.0527422587395826e-03  -9.6825787388909786e-03  -1.0043701054412246e-02  -1.0133920205537250e-02  -9.9535678945179284e-03  -9.5058266622216163e-03  -8.7970897168958232e-03  -7.8373521439387174e-03  -6.6406353346553457e-03  -5.2254466548866119e-03  -3.6152765612001690e-03  -1.8391355494336728e-03  6.7866519193852519e-05  2.0638960315666655e-03  4.0997233864277271e-03  6.1180000554901344e-03  8.0524820827185921e-03  9.8271972260417489e-03  1.1355553076579830e-02  1.2539383641551907e-02  1.3267931902483848e-02  1.3416765414065352e-02  1.2846620530831694e-02  1.1402167560479170e-02  8.9106838269681146e-03  5.1806149465267711e-03  1.5178830414797054e-18  4.7442474905097135e-19  -2.4311352148943741e-03  -4.6086247101636436e-03  -6.5188543468417039e-03  -8.1493941416547980e-03  -9.4892383972058104e-03  -1.0529060788594233e-02  -1.1261488832984229e-02  -1.1681401692512803e-02  -1.1786254595684663e-02  -1.1576432586091978e-02  -1.1055635943245806e-02  -1.0231299466003443e-02  -9.1150478118963915e-03  -7.7231891850779080e-03  -6.0772498157533033e-03  -4.2045518453790618e-03  -2.1388374074766572e-03  7.9058136740262316e-05  2.4004806930861518e-03  4.7681764094880483e-03  7.1154517730592521e-03  9.3652713925076857e-03  1.1429289975157037e-02  1.3206814949751799e-02  1.4583696051523119e-02  1.5431137824998629e-02  1.5604430170390220e-02  1.4941590439589770e-02  1.3261907972765614e-02  1.0364378492312250e-02  6.0260124569937647e-03  -1.6308270255916939e-18  -2.2087149908084587e-20  -2.7475669183404123e-03  -5.2083123634728739e-03  -7.3669238755717523e-03  -9.2094095115556815e-03  -1.0723370016515889e-02  -1.1898289989836969e-02  -1.2725851665393263e-02  -1.3200274851508001e-02  -1.3318686292989766e-02  -1.3081521410241638e-02  -1.2492961145287650e-02  -1.1561406537424138e-02  -1.0299993651968800e-02  -8.7271515667055183e-03  -6.8672062534866291e-03  -4.7510333546612387e-03  -2.4167630300315460e-03  8.9459770361822631e-05  2.7126560760096282e-03  5.3881310079438617e-03  8.0405253727566552e-03  1.0582796722511724e-02  1.2915125696185451e-02  1.4923743240505081e-02  1.6479673970727686e-02  1.7437390364683836e-02  1.7633371542713459e-02  1.6884558953109106e-02  1.4986699363088357e-02  1.1712563464920304e-02  6.8100268347630871e-03  -1.7347234759768063e-18  -3.8607614941863293e-19  -3.0303652256575787e-03  -5.7442615559798460e-03  -8.1248540060168233e-03  -1.0156753000874897e-02  -1.1826314185019655e-02  -1.3121960847340118e-02  -1.4034532082544578e-02  -1.4557659937340773e-02  -1.4688178741758024e-02  -1.4426569712679221e-02  -1.3777443818816628e-02  -1.2750065855014640e-02  -1.1358922699148486e-02  -9.6243388094025429e-03  -7.5731421492530445e-03  -5.2393838879497574e-03  -2.6651154043876579e-03  9.8773686031478964e-05  2.9916525635291656e-03  5.9421771736037805e-03  8.8672448016893848e-03  1.1670870692478090e-02  1.4242981889411033e-02  1.6458123134718290e-02  1.8174069211503049e-02  1.9230337458998208e-02  1.9446593287640212e-02  1.8620940345765630e-02  1.6528085645711801e-02  1.2917368721079917e-02  7.5106432402335856e-03  2.5505771342895998e-18  1.1603924191060597e-18  -3.2720036911467478e-03  -6.2022083868339207e-03  -8.7724748113846580e-03  -1.0966217694624024e-02  -1.2768728664454949e-02  -1.4167524816406964e-02  -1.5152725783527256e-02  -1.5717462358602354e-02  -1.5858319811906021e-02  -1.5575819066837689e-02  -1.4874938898461849e-02  -1.3765682342373567e-02  -1.2263690560568048e-02  -1.0390907510437170e-02  -8.1762988984740177e-03  -5.6566290649112030e-03  -2.8772996327411497e-03  1.0674604054795831e-04  3.2300483501216748e-03  6.4155823755615632e-03  9.5736295064910645e-03  1.2600564723745846e-02  1.5377554161111237e-02  1.7769157160357277e-02  1.9621826510932479e-02  2.0762299902927342e-02  2.0995874804023661e-02  2.0104558032362708e-02  1.7845080352160057e-02  1.3946765685438364e-02  8.1092443094696789e-03  -4.5536491244391194e-18  1.3823577699190182e-18  -3.4663259489220357e-03  -6.5704847552484971e-03  -9.2932860495485142e-03  -1.1617181895763173e-02  -1.3526607973091164e-02  -1.5008352864672022e-02  -1.6051958106668231e-02  -1.6650151928400827e-02  -1.6799319786711338e-02  -1.6500014903081516e-02  -1.5757512087582706e-02  -1.4582408208431479e-02  -1.2991272757888660e-02  -1.1007352082998644e-02  -8.6613309952121870e-03  -5.9921556448154474e-03  -3.0479217417818359e-03  1.1316757775330934e-04  3.4217697009451611e-03  6.7962915018868102e-03  1.0141694224618490e-02  1.3348208857808666e-02  1.6289956186476603e-02  1.8823465247464803e-02  2.0786083367852457e-02  2.1994270320489822e-02  2.2241768401402087e-02  2.1297639471050150e-02  1.8904159308699906e-02  1.4774559161792348e-02  8.5906043138734844e-03  8.3270538451198829e-19  -2.4689256789564242e-18  -3.6085447701982845e-03  -6.8400170533877104e-03  -9.6744558933732454e-03  -1.2093608071660756e-02  -1.4081282538387051e-02  -1.5623734712835461e-02  -1.6710083213372525e-02  -1.7332761876903087e-02  -1.7488010146623358e-02  -1.7176405065531225e-02  -1.6403438237261918e-02  -1.5180141228257659e-02  -1.3523763003127642e-02  -1.1458503119016002e-02  -9.0163045603651442e-03  -6.2377102747244962e-03  -3.1727876737159865e-03  1.1787440864439742e-04  3.5620915538117299e-03  7.0749273623756962e-03  1.0557449473486075e-02  1.3895392285964963e-02  1.6957720248017207e-02  1.9595085098110702e-02  2.1638169884043337e-02  2.2895911965770704e-02  2.3153596545426997e-02  2.2170811618562311e-02  1.9679254688906314e-02  1.5380381244301586e-02  8.9428849646425290e-03  -3.6862873864507158e-18  1.9881319109936522e-18  -3.6952413164556509e-03  -7.0043250676315554e-03  -9.9068197818329828e-03  -1.2384041820877387e-02  -1.4419417817923387e-02  -1.5998878061431732e-02  -1.7111283335432992e-02  -1.7748888037943663e-02  -1.7907842642554756e-02  -1.7588738756399644e-02  -1.6797200179812212e-02  -1.5544523508134806e-02  -1.3848371950311201e-02  -1.1733526183627005e-02  -9.2326962265051396e-03  -6.3873984957335175e-03  -3.2489024232430206e-03  1.2074875748593081e-04  3.6476381814777824e-03  7.2447913079974188e-03  1.0810902155282706e-02  1.4228963925069098e-02  1.7364797690634912e-02  2.0065472324693519e-02  2.2157608286138466e-02  2.3445557279433326e-02  2.3709449176656509e-02  2.2703097000240934e-02  2.0151750274261037e-02  1.5749686743396780e-02  9.1576324014603742e-03  2.1485764733414011e-18  -8.9180779447621724e-19  -3.7243646098832736e-03  -7.0595211751619076e-03  -9.9848795492356625e-03  -1.2481611062349194e-02  -1.4533013595273326e-02  -1.6124907979194299e-02  -1.7246068209180437e-02  -1.7888688276218142e-02  -1.8048888675629600e-02  -1.7727265848678214e-02  -1.6929487976229771e-02  -1.5666940686420654e-02  -1.3957426378070400e-02  -1.1825921009886966e-02  -9.3053923702683776e-03  -6.4376840285401381e-03  -3.2744693788450911e-03  1.2171957484735067e-04  3.6763837769004390e-03  7.3018638039705156e-03  1.0896056115349710e-02  1.4341032920688748e-02  1.7501559272031335e-02  2.0223500484303620e-02  2.2332112429173573e-02  2.3630206645033677e-02  2.3896181589946150e-02  2.2881910781655648e-02  2.0310478080909980e-02  1.5873750047383638e-02  9.2297751838087052e-03  6.5052130349130247e-19  2.6633014393967220e-18  -3.6952312127895791e-03  -7.0043098471375435e-03  -9.9068028730308205e-03  -1.2384025507439278e-02  -1.4419403511657908e-02  -1.5998866493965921e-02  -1.7111274703955383e-02  -1.7748882124796556e-02  -1.7907838919341713e-02  -1.7588736478640076e-02  -1.6797198476225076e-02  -1.5544521467893483e-02  -1.3848368711011673e-02  -1.1733521021554973e-02  -9.2326886487127668e-03  -6.3873883303749114e-03  -3.2488899007755202e-03  1.2076294378147868e-04  3.6476528509515817e-03  7.2448048217951793e-03  1.0810912517102695e-02  1.4228968968314016e-02  1.7364795359655238e-02  2.0065461045945535e-02  2.2157587407300488e-02  2.3445527528267635e-02  2.3709413050894777e-02  2.2703058933502183e-02  2.0151716310727489e-02  1.5749663263603924e-02  9.1576231266152584e-03  -1.0933627502625150e-18  -1.7243293765979312e-18  -3.6085251134002792e-03  -6.8399874689057151e-03  -9.6744230696742574e-03  -1.2093576459698186e-02  -1.4081254883588580e-02  -1.5623712430318527e-02  -1.6710066674227343e-02  -1.7332750643262698e-02  -1.7488003175841038e-02  -1.7176400895128091e-02  -1.6403435158777836e-02  -1.5180137456844971e-02  -1.3523756848587953e-02  -1.1458493161674514e-02  -9.0162898310264979e-03  -6.2376904318451262e-03  -3.1727631632682387e-03  1.1790223342115989e-04  3.5621203830671598e-03  7.0749539858998836e-03  1.0557469978050547e-02  1.3895402423043497e-02  1.6957715986819520e-02  1.9595063354885454e-02  2.1638129382932202e-02  2.2895854134508540e-02  2.3153526270308172e-02  2.2170737555786676e-02  1.9679188615081687e-02  1.5380335565601398e-02  8.9428669015010516e-03  4.5536491244391179e-18  1.8487712875268955e-18  -3.4662978156720903e-03  -6.5704424777717502e-03  -9.2932392444506039e-03  -1.1617136952981333e-02  -1.3526568819136577e-02  -1.5008321505077625e-02  -1.6051935042308577e-02  -1.6650136497719400e-02  -1.6799310461879966e-02  -1.6500009556611010e-02  -1.5757508241505746e-02  -1.4582403276663242e-02  -1.2991264290807257e-02  -1.1007338019847141e-02  -8.6613099237135178e-03  -5.9921270582816537e-03  -3.0478862726036823e-03  1.1320798168633620e-04  3.4218117015481142e-03  6.7963304499424372e-03  1.0141724445163097e-02  1.3348224185073514e-02  1.6289950769833913e-02  1.8823434613395040e-02  2.0786025669177775e-02  2.1994187627305064e-02  2.2241667774768187e-02  2.1297533381943814e-02  1.8904064667822063e-02  1.4774493723390431e-02  8.5905783794556576e-03  -6.9237450573467851e-18  1.1922582917813977e-18  -3.2719686344643037e-03  -6.2021558166318654e-03  -8.7724167887163369e-03  -1.0966162217621075e-02  -1.2768680621744199e-02  -1.4167486672367648e-02  -1.5152698108693775e-02  -1.5717444266390108e-02  -1.5858309334632774e-02  -1.5575813491334389e-02  -1.4874935077255390e-02  -1.3765676995127809e-02  -1.2263680578613670e-02  -1.0390890272682710e-02  -8.1762725987746011e-03  -5.6565930389914122e-03  -2.8772546578139436e-03  1.0679751655079597e-04  3.2301021076351698e-03  6.4156325186521656e-03  9.5736688230908338e-03  1.2600585367375161e-02  1.5377548681412371e-02  1.7769119860631354e-02  1.9621755038816902e-02  2.0762196879757933e-02  2.0995749155430250e-02  2.0104425465743671e-02  1.7844962074096256e-02  1.3946683858094101e-02  8.1092117488657366e-03  2.9273458657108608e-18  -5.4627228873365988e-19  -3.0303251978310865e-03  -5.7442016922650439e-03  -8.1247881949927294e-03  -1.0156690430716989e-02  -1.1826260433409716e-02  -1.3121918677140808e-02  -1.4034502064777894e-02  -1.4557640965336701e-02  -1.4688168471037153e-02  -1.4426564949311587e-02  -1.3777440875882532e-02  -1.2750060896170442e-02  -1.1358912086287240e-02  -9.6243194658267826e-03  -7.5731119396959014e-03  -5.2393420021909064e-03  -2.6650627130371048e-03  9.8834354807594637e-05  2.9917162958754953e-03  5.9422370725350868e-03  8.8672924041259781e-03  1.1670896769864223e-02  1.4242977664911645e-02  1.6458081888392134e-02  1.8173988154593153e-02  1.9230219635139458e-02  1.9446449091047001e-02  1.8620788005376848e-02  1.6527949647274835e-02  1.2917274511412067e-02  7.5106054969303693e-03  1.6738511265890946e-18  -3.0180000121276613e-19  -2.7475241644177267e-03  -5.2082486271565528e-03  -7.3668541504585848e-03  -9.2093436921074894e-03  -1.0723314059361257e-02  -1.1898246779946140e-02  -1.2725821704677846e-02  -1.3200256829039761e-02  -1.3318677569266071e-02  -1.3081518439205150e-02  -1.2492959856983564e-02  -1.1561402704627069e-02  -1.0299983262050189e-02  -8.7271312135176835e-03  -6.8671735523599450e-03  -4.7509873668581419e-03  -2.4167046621694777e-03  8.9527449236107920e-05  2.7127276784456107e-03  5.3881989271932669e-03  8.0405802339111650e-03  1.0582828266552071e-02  1.2915124136068667e-02  1.4923701055527107e-02  1.6479587997774346e-02  1.7437263900000822e-02  1.7633215979379859e-02  1.6884394227112506e-02  1.4986552111274986e-02  1.1712461199635087e-02  6.8099854208267538e-03  -2.7105054312137619e-18  6.6927012109921929e-19  -2.4310921350850596e-03  -4.6085607195516078e-03  -6.5187847543249026e-03  -8.1493290276728175e-03  -9.4891837718320427e-03  -1.0529019481797929e-02  -1.1261461217018130e-02  -1.1681386283126670e-02  -1.1786248558625366e-02  -1.1576432171985339e-02  -1.1055636876365590e-02  -1.0231297314218863e-02  -9.1150383630547050e-03  -7.7231688478465238e-03  -6.0772160500923893e-03  -4.2045036095651198e-03  -2.1387755859326768e-03  7.9130385595097664e-05  2.4005577537178375e-03  4.7682502933978623e-03  7.1155125776168737e-03  9.3653082258903977e-03  1.1429292393664437e-02  1.3206774872174643e-02  1.4583609992563912e-02  1.5431009124881703e-02  1.5604270691403624e-02  1.4941420946193879e-02  1.3261756077023009e-02  1.0364272538785732e-02  6.0259688556641763e-03  1.0933071075670810e-19  -4.2481554624011213e-19  -2.0899268084938294e-03  -3.9619991470153720e-03  -5.6044208701349074e-03  -7.0064394506214557e-03  -8.1585491981980545e-03  -9.0527054670955648e-03  -9.6825553945080450e-03  -1.0043689548612933e-02  -1.0133917625991576e-02  -9.9535704519554003e-03  -9.5058300658079128e-03  -8.7970895286538734e-03  -7.8373441406306126e-03  -6.6406158978415813e-03  -5.2254131964372171e-03  -3.6152279726671772e-03  -1.8390726402793850e-03  6.7940655649885055e-05  2.06