<?xml version="1.0"?>
<VTKFile type="UnstructuredGrid"  version="0.1"  >
<UnstructuredGrid>
<Piece  NumberOfPoints="16641" NumberOfCells="16384">
<Points>
<DataArray  type="Float64"  NumberOfComponents="3"  format="ascii">0 0 0  0.0078125 0 0  0.015625 0 0  0.0234375 0 0  0.03125 0 0  0.0390625 0 0  0.046875 0 0  0.0546875 0 0  0.0625 0 0  0.0703125 0 0  0.078125 0 0  0.0859375 0 0  0.09375 0 0  0.1015625 0 0  0.109375 0 0  0.1171875 0 0  0.125 0 0  0.1328125 0 0  0.140625 0 0  0.1484375 0 0  0.15625 0 0  0.1640625 0 0  0.171875 0 0  0.1796875 0 0  0.1875 0 0  0.1953125 0 0  0.203125 0 0  0.2109375 0 0  0.21875 0 0  0.2265625 0 0  0.234375 0 0  0.2421875 0 0  0.25 0 0  0.2578125 0 0  0.265625 0 0  0.2734375 0 0  0.28125 0 0  0.2890625 0 0  0.296875 0 0  0.3046875 0 0  0.3125 0 0  0.3203125 0 0  0.328125 0 0  0.3359375 0 0  0.34375 0 0  0.3515625 0 0  0.359375 0 0  0.3671875 0 0  0.375 0 0  0.3828125 0 0  0.390625 0 0  0.3984375 0 0  0.40625 0 0  0.4140625 0 0  0.421875 0 0  0.4296875 0 0  0.4375 0 0  0.4453125 0 0  0.453125 0 0  0.4609375 0 0  0.46875 0 0  0.4765625 0 0  0.484375 0 0  0.4921875 0 0  0.5 0 0  0.5078125 0 0  0.515625 0 0  0.5234375 0 0  0.53125 0 0  0.5390625 0 0  0.546875 0 0  0.5546875 0 0  0.5625 0 0  0.5703125 0 0  0.578125 0 0  0.5859375 0 0  0.59375 0 0  0.6015625 0 0  0.609375 0 0  0.6171875 0 0  0.625 0 0  0.6328125 0 0  0.640625 0 0  0.6484375 0 0  0.65625 0 0  0.6640625 0 0  0.671875 0 0  0.6796875 0 0  0.6875 0 0  0.6953125 0 0  0.703125 0 0  0.7109375 0 0  0.71875 0 0  0.7265625 0 0  0.734375 0 0  0.7421875 0 0  0.75 0 0  0.7578125 0 0  0.765625 0 0  0.7734375 0 0  0.78125 0 0  0.7890625 0 0  0.796875 0 0  0.8046875 0 0  0.8125 0 0  0.8203125 0 0  0.828125 0 0  0.8359375 0 0  0.84375 0 0  0.8515625 0 0  0.859375 0 0  0.8671875 0 0  0.875 0 0  0.8828125 0 0  0.890625 0 0  0.8984375 0 0  0.90625 0 0  0.9140625 0 0  0.921875 0 0  0.9296875 0 0  0.9375 0 0  0.9453125 0 0  0.953125 0 0  0.9609375 0 0  0.96875 0 0  0.9765625 0 0  0.984375 0 0  0.9921875 0 0  1 0 0  0 0.0078125 0  0.0078125 0.0078125 0  0.015625 0.0078125 0  0.0234375 0.0078125 0  0.03125 0.0078125 0  0.0390625 0.0078125 0  0.046875 0.0078125 0  0.0546875 0.0078125 0  0.0625 0.0078125 0  0.0703125 0.0078125 0  0.078125 0.0078125 0  0.0859375 0.0078125 0  0.09375 0.0078125 0  0.1015625 0.0078125 0  0.109375 0.0078125 0  0.1171875 0.0078125 0  0.125 0.0078125 0  0.1328125 0.0078125 0  0.140625 0.0078125 0  0.1484375 0.0078125 0  0.15625 0.0078125 0  0.1640625 0.0078125 0  0.171875 0.0078125 0  0.1796875 0.0078125 0  0.1875 0.0078125 0  0.1953125 0.0078125 0  0.203125 0.0078125 0  0.2109375 0.0078125 0  0.21875 0.0078125 0  0.2265625 0.0078125 0  0.234375 0.0078125 0  0.2421875 0.0078125 0  0.25 0.0078125 0  0.2578125 0.0078125 0  0.265625 0.0078125 0  0.2734375 0.0078125 0  0.28125 0.0078125 0  0.2890625 0.0078125 0  0.296875 0.0078125 0  0.3046875 0.0078125 0  0.3125 0.0078125 0  0.3203125 0.0078125 0  0.328125 0.0078125 0  0.3359375 0.0078125 0  0.34375 0.0078125 0  0.3515625 0.0078125 0  0.359375 0.0078125 0  0.3671875 0.0078125 0  0.375 0.0078125 0  0.3828125 0.0078125 0  0.390625 0.0078125 0  0.3984375 0.0078125 0  0.40625 0.0078125 0  0.4140625 0.0078125 0  0.421875 0.0078125 0  0.4296875 0.0078125 0  0.4375 0.0078125 0  0.4453125 0.0078125 0  0.453125 0.0078125 0  0.4609375 0.0078125 0  0.46875 0.0078125 0  0.4765625 0.0078125 0  0.484375 0.0078125 0  0.4921875 0.0078125 0  0.5 0.0078125 0  0.5078125 0.0078125 0  0.515625 0.0078125 0  0.5234375 0.0078125 0  0.53125 0.0078125 0  0.5390625 0.0078125 0  0.546875 0.0078125 0  0.5546875 0.0078125 0  0.5625 0.0078125 0  0.5703125 0.0078125 0  0.578125 0.0078125 0  0.5859375 0.0078125 0  0.59375 0.0078125 0  0.6015625 0.0078125 0  0.609375 0.0078125 0  0.6171875 0.0078125 0  0.625 0.0078125 0  0.6328125 0.0078125 0  0.640625 0.0078125 0  0.6484375 0.0078125 0  0.65625 0.0078125 0  0.6640625 0.0078125 0  0.671875 0.0078125 0  0.6796875 0.0078125 0  0.6875 0.0078125 0  0.6953125 0.0078125 0  0.703125 0.0078125 0  0.7109375 0.0078125 0  0.71875 0.0078125 0  0.7265625 0.0078125 0  0.734375 0.0078125 0  0.7421875 0.0078125 0  0.75 0.0078125 0  0.7578125 0.0078125 0  0.765625 0.0078125 0  0.7734375 0.0078125 0  0.78125 0.0078125 0  0.7890625 0.0078125 0  0.796875 0.0078125 0  0.8046875 0.0078125 0  0.8125 0.0078125 0  0.8203125 0.0078125 0  0.828125 0.0078125 0  0.8359375 0.0078125 0  0.84375 0.0078125 0  0.8515625 0.0078125 0  0.859375 0.0078125 0  0.8671875 0.0078125 0  0.875 0.0078125 0  0.8828125 0.0078125 0  0.890625 0.0078125 0  0.8984375 0.0078125 0  0.90625 0.0078125 0  0.9140625 0.0078125 0  0.921875 0.0078125 0  0.9296875 0.0078125 0  0.9375 0.0078125 0  0.9453125 0.0078125 0  0.953125 0.0078125 0  0.9609375 0.0078125 0  0.96875 0.0078125 0  0.9765625 0.0078125 0  0.984375 0.0078125 0  0.9921875 0.0078125 0  1 0.0078125 0  0 0.015625 0  0.0078125 0.015625 0  0.015625 0.015625 0  0.0234375 0.015625 0  0.03125 0.015625 0  0.0390625 0.015625 0  0.046875 0.015625 0  0.0546875 0.015625 0  0.0625 0.015625 0  0.0703125 0.015625 0  0.078125 0.015625 0  0.0859375 0.015625 0  0.09375 0.015625 0  0.1015625 0.015625 0  0.109375 0.015625 0  0.1171875 0.015625 0  0.125 0.015625 0  0.1328125 0.015625 0  0.140625 0.015625 0  0.1484375 0.015625 0  0.15625 0.015625 0  0.1640625 0.015625 0  0.171875 0.015625 0  0.1796875 0.015625 0  0.1875 0.015625 0  0.1953125 0.015625 0  0.203125 0.015625 0  0.2109375 0.015625 0  0.21875 0.015625 0  0.2265625 0.015625 0  0.234375 0.015625 0  0.2421875 0.015625 0  0.25 0.015625 0  0.2578125 0.015625 0  0.265625 0.015625 0  0.2734375 0.015625 0  0.28125 0.015625 0  0.2890625 0.015625 0  0.296875 0.015625 0  0.3046875 0.015625 0  0.3125 0.015625 0  0.3203125 0.015625 0  0.328125 0.015625 0  0.3359375 0.015625 0  0.34375 0.015625 0  0.3515625 0.015625 0  0.359375 0.015625 0  0.3671875 0.015625 0  0.375 0.015625 0  0.3828125 0.015625 0  0.390625 0.015625 0  0.3984375 0.015625 0  0.40625 0.015625 0  0.4140625 0.015625 0  0.421875 0.015625 0  0.4296875 0.015625 0  0.4375 0.015625 0  0.4453125 0.015625 0  0.453125 0.015625 0  0.4609375 0.015625 0  0.46875 0.015625 0  0.4765625 0.015625 0  0.484375 0.015625 0  0.4921875 0.015625 0  0.5 0.015625 0  0.5078125 0.015625 0  0.515625 0.015625 0  0.5234375 0.015625 0  0.53125 0.015625 0  0.5390625 0.015625 0  0.546875 0.015625 0  0.5546875 0.015625 0  0.5625 0.015625 0  0.5703125 0.015625 0  0.578125 0.015625 0  0.5859375 0.015625 0  0.59375 0.015625 0  0.6015625 0.015625 0  0.609375 0.015625 0  0.6171875 0.015625 0  0.625 0.015625 0  0.6328125 0.015625 0  0.640625 0.015625 0  0.6484375 0.015625 0  0.65625 0.015625 0  0.6640625 0.015625 0  0.671875 0.015625 0  0.6796875 0.015625 0  0.6875 0.015625 0  0.6953125 0.015625 0  0.703125 0.015625 0  0.7109375 0.015625 0  0.71875 0.015625 0  0.7265625 0.015625 0  0.734375 0.015625 0  0.7421875 0.015625 0  0.75 0.015625 0  0.7578125 0.015625 0  0.765625 0.015625 0  0.7734375 0.015625 0  0.78125 0.015625 0  0.7890625 0.015625 0  0.796875 0.015625 0  0.8046875 0.015625 0  0.8125 0.015625 0  0.8203125 0.015625 0  0.828125 0.015625 0  0.8359375 0.015625 0  0.84375 0.015625 0  0.8515625 0.015625 0  0.859375 0.015625 0  0.8671875 0.015625 0  0.875 0.015625 0  0.8828125 0.015625 0  0.890625 0.015625 0  0.8984375 0.015625 0  0.90625 0.015625 0  0.9140625 0.015625 0  0.921875 0.015625 0  0.9296875 0.015625 0  0.9375 0.015625 0  0.9453125 0.015625 0  0.953125 0.015625 0  0.9609375 0.015625 0  0.96875 0.015625 0  0.9765625 0.015625 0  0.984375 0.015625 0  0.9921875 0.015625 0  1 0.015625 0  0 0.0234375 0  0.0078125 0.0234375 0  0.015625 0.0234375 0  0.0234375 0.0234375 0  0.03125 0.0234375 0  0.0390625 0.0234375 0  0.046875 0.0234375 0  0.0546875 0.0234375 0  0.0625 0.0234375 0  0.0703125 0.0234375 0  0.078125 0.0234375 0  0.0859375 0.0234375 0  0.09375 0.0234375 0  0.1015625 0.0234375 0  0.109375 0.0234375 0  0.1171875 0.0234375 0  0.125 0.0234375 0  0.1328125 0.0234375 0  0.140625 0.0234375 0  0.1484375 0.0234375 0  0.15625 0.0234375 0  0.1640625 0.0234375 0  0.171875 0.0234375 0  0.1796875 0.0234375 0  0.1875 0.0234375 0  0.1953125 0.0234375 0  0.203125 0.0234375 0  0.2109375 0.0234375 0  0.21875 0.0234375 0  0.2265625 0.0234375 0  0.234375 0.0234375 0  0.2421875 0.0234375 0  0.25 0.0234375 0  0.2578125 0.0234375 0  0.265625 0.0234375 0  0.2734375 0.0234375 0  0.28125 0.0234375 0  0.2890625 0.0234375 0  0.296875 0.0234375 0  0.3046875 0.0234375 0  0.3125 0.0234375 0  0.3203125 0.0234375 0  0.328125 0.0234375 0  0.3359375 0.0234375 0  0.34375 0.0234375 0  0.3515625 0.0234375 0  0.359375 0.0234375 0  0.3671875 0.0234375 0  0.375 0.0234375 0  0.3828125 0.0234375 0  0.390625 0.0234375 0  0.3984375 0.0234375 0  0.40625 0.0234375 0  0.4140625 0.0234375 0  0.421875 0.0234375 0  0.4296875 0.0234375 0  0.4375 0.0234375 0  0.4453125 0.0234375 0  0.453125 0.0234375 0  0.4609375 0.0234375 0  0.46875 0.0234375 0  0.4765625 0.0234375 0  0.484375 0.0234375 0  0.4921875 0.0234375 0  0.5 0.0234375 0  0.5078125 0.0234375 0  0.515625 0.0234375 0  0.5234375 0.0234375 0  0.53125 0.0234375 0  0.5390625 0.0234375 0  0.546875 0.0234375 0  0.5546875 0.0234375 0  0.5625 0.0234375 0  0.5703125 0.0234375 0  0.578125 0.0234375 0  0.5859375 0.0234375 0  0.59375 0.0234375 0  0.6015625 0.0234375 0  0.609375 0.0234375 0  0.6171875 0.0234375 0  0.625 0.0234375 0  0.6328125 0.0234375 0  0.640625 0.0234375 0  0.6484375 0.0234375 0  0.65625 0.0234375 0  0.6640625 0.0234375 0  0.671875 0.0234375 0  0.6796875 0.0234375 0  0.6875 0.0234375 0  0.6953125 0.0234375 0  0.703125 0.0234375 0  0.7109375 0.0234375 0  0.71875 0.0234375 0  0.7265625 0.0234375 0  0.734375 0.0234375 0  0.7421875 0.0234375 0  0.75 0.0234375 0  0.7578125 0.0234375 0  0.765625 0.0234375 0  0.7734375 0.0234375 0  0.78125 0.0234375 0  0.7890625 0.0234375 0  0.796875 0.0234375 0  0.8046875 0.0234375 0  0.8125 0.0234375 0  0.8203125 0.0234375 0  0.828125 0.0234375 0  0.8359375 0.0234375 0  0.84375 0.0234375 0  0.8515625 0.0234375 0  0.859375 0.0234375 0  0.8671
[...]
<PointData  Scalars="u_sol"> 
<DataArray  type="Float64"  Name="u_sol"  format="ascii">1.8899992016289170e-06  -1.0225763706266731e-05  -2.1799827446846053e-05  -2.3679778754791249e-05  -1.8439683936233613e-05  -7.5094341487963832e-06  7.3227856263162895e-06  2.4416186047469665e-05  4.2078160947277227e-05  5.8800085859818475e-05  7.3373127189846265e-05  8.5027945716326916e-05  9.3470441715523423e-05  9.8858581733386906e-05  1.0171547924883049e-04  1.0281858184034351e-04  1.0308496106666992e-04  1.0347314538227080e-04  1.0490616233073178e-04  1.0821421455422773e-04  1.1409045659764878e-04  1.2305608056672004e-04  1.3543661754999043e-04  1.5135787792185969e-04  1.7077204889763396e-04  1.9351938163895675e-04  2.1941909804485589e-04  2.4836945619054565e-04  2.8042861942629004e-04  3.1585083417067883e-04  3.5506665801201198e-04  3.9861584783390123e-04  4.4705735735621959e-04  5.0088485722545571e-04  5.6046658454416982e-04  6.2601116573074488e-04  6.9754650513652197e-04  7.7489466701119274e-04  8.5763211554623446e-04  9.4503542499046241e-04  1.0360202224656855e-03  1.1290833127977462e-03  1.2222564085581926e-03  1.3130781665585511e-03  1.3985905960089173e-03  1.4753654060519073e-03  1.5395649003563429e-03  1.5870401775210108e-03  1.6134661647418860e-03  1.6145098849088520e-03  1.5860245392865101e-03  1.5242587263733769e-03  1.4260679967602944e-03  1.2891150599355667e-03  1.1120457156292927e-03  8.9463101397287885e-04  6.3787024724072119e-04  3.4405335232100547e-04  1.6785490767760756e-05  -3.3902154199256097e-04  -7.1718555322559854e-04  -1.1103138373698047e-03  -1.5098848960950174e-03  -1.9063532948094815e-03  -2.2892832290320078e-03  -2.6475189195588333e-03  -2.9694025788402968e-03  -3.2430521347891119e-03  -3.4567094415900290e-03  -3.5991656302041511e-03  -3.6602643558843054e-03  -3.6314739881355847e-03  -3.5065066378552126e-03  -3.2819488948756231e-03  -2.9578534359067554e-03  -2.5382291467907279e-03  -2.0313601653882789e-03  -1.4498829540365177e-03  -8.1056312444921139e-04  -1.3373531684719749e-04  5.5759733204540577e-04  1.2389645443455762e-03  1.8858487276823114e-03  2.4752008059063901e-03  2.9869039167730255e-03  3.4050315673004898e-03  3.7187641869658580e-03  3.9228693375566856e-03  4.0177074213516833e-03  4.0087883895324802e-03  3.9059618847199352e-03  3.7223632510686444e-03  3.4732545144889114e-03  3.1748905322366381e-03  2.8435110941387215e-03  2.4945196296639102e-03  2.1418680450617524e-03  1.7976347850092317e-03  1.4717657445007506e-03  1.1719451512808496e-03  9.0357248239063021e-04  6.6983407142461385e-04  4.7186703901097343e-04  3.0901317276617557e-04  1.7915154649577916e-04  7.9085112095176178e-05  4.9452270528281771e-06  -4.7425838512322748e-05  -8.2149039153439933e-05  -1.0306162438437718e-04  -1.1355656107549674e-04  -1.1650240950368087e-04  -1.1422914269884133e-04  -1.0856106271138946e-04  -1.0087893889482303e-04  -9.2194588298937538e-05  -8.3226928153453623e-05  -7.4467440735823194e-05  -6.6233972552180934e-05  -5.8699509233276527e-05  -5.1912682694131194e-05  -4.5778306363737277e-05  -4.0064171117980640e-05  -3.4331524939299739e-05  -2.8019841858521100e-05  -2.0376670856059183e-05  -1.1075070502200300e-05  -1.3431110196313756e-06  8.3233788270261292e-07  1.2266786892039110e-06  -1.1093813561439403e-05  4.6737687244039471e-05  2.3110204380937655e-04  5.4399445207244069e-04  9.6953049861480919e-04  1.4803375553903840e-03  2.0435948647647877e-03  2.6247563531819002e-03  3.1911712209696558e-03  3.7151429123998660e-03  4.1761794511467618e-03  4.5622159782212988e-03  4.8697622612813079e-03  5.1031158436734081e-03  5.2728789293614263e-03  5.3940615092041887e-03  5.4840223058790190e-03  5.5604416495514441e-03  5.6394573832379558e-03  5.7340583633934327e-03  5.8528248842920697e-03  5.9991202136101965e-03  6.1708406542548546e-03  6.3607899932311982e-03  6.5576413422945481e-03  6.7473035777637002e-03  6.9143745783553888e-03  7.0433072516589632e-03  7.1189835803868217e-03  7.1265797527163806e-03  7.0508439388138715e-03  6.8750969894405831e-03  6.5803227813414182e-03  6.1446231295316485e-03  5.5431343759658113e-03  4.7483412539862145e-03  3.7306552099234812e-03  2.4591549328612113e-03  9.0246033209334686e-04  -9.7023688474179011e-04  -3.1879606741580676e-03  -5.7765640924880750e-03  -8.7572181615377109e-03  -1.2144858257910493e-02  -1.5946690035975937e-02  -2.0160864945904092e-02  -2.4775432130388745e-02  -2.9767658157325572e-02  -3.5103779185857706e-02  -4.0739212992428206e-02  -4.6619216088836318e-02  -5.2679931292042105e-02  -5.8849738605384817e-02  -6.5050803790339604e-02  -7.1200715858075941e-02  -7.7214113629014078e-02  -8.3004221453334665e-02  -8.8484241494327709e-02  -9.3568577724301494e-02  -9.8173894518866461e-02  -1.0222003609018653e-01  -1.0563084989128659e-01  -1.0833496768975416e-01  -1.1026660231851215e-01  -1.1136641528644366e-01  -1.1158250202553056e-01  -1.1087152905376117e-01  -1.0920003845522527e-01  -1.0654591417924768e-01  -1.0289997828441381e-01  -9.8267657394342151e-02  -9.2670631468116521e-02  -8.6148346865366196e-02  -7.8759252299720320e-02  -7.0581597628218834e-02  -6.1713628434483615e-02  -5.2273018112359300e-02  -4.2395405087129287e-02  -3.2231950326166041e-02  -2.1945896990670927e-02  -1.1708197764226935e-02  -1.6923684820181794e-03  7.9311819429865212e-03  1.7001017259419490e-02  2.5370356039429196e-02  3.2912178304441382e-02  3.9523396195573962e-02  4.5127805063965860e-02  4.9677646573986975e-02  5.3153753224057111e-02  5.5564384968045277e-02  5.6942991068532643e-02  5.7345212037858237e-02  5.6845462651302275e-02  5.5533401688746861e-02  5.3510505472138176e-02  5.0886840381581047e-02  4.7778005428461771e-02  4.4302126221274100e-02  4.0576757004509384e-02  3.6715602074606703e-02  3.2825090457877286e-02  2.9000991030160354e-02  2.5325383665846503e-02  2.1864353310544635e-02  1.8666721486143692e-02  1.5763983559326105e-02  1.3171424930990187e-02  1.0890204917629820e-02  8.9100728734811917e-03  7.2123402243828780e-03  5.7727689731434098e-03  4.5641260135652626e-03  3.5582628552756337e-03  2.7276834744993429e-03  2.0466462602546859e-03  1.4918928683641567e-03  1.0431200306538749e-03  6.8328582831624226e-04  3.9882185200787907e-04  1.7972337429960554e-04  1.9470608226948842e-05  -8.5489390817933484e-05  -1.3694390411265260e-04  -1.3750006268657127e-04  -9.5546418421020538e-05  -3.2202617183531456e-05  6.0220317245719721e-06  -7.8964499345392893e-06  3.8580564608192075e-05  2.3146486549876111e-04  6.1489172195836690e-04  1.1915539146236953e-03  1.9383978900139305e-03  2.8145901010593671e-03  3.7697948682206927e-03  4.7506232412368307e-03  5.7063570930293390e-03  6.5935936183814051e-03  7.3796075163690055e-03  8.0442081711322288e-03  8.5800872876585568e-03  8.9918140283735092e-03  9.2937701498929243e-03  9.5073695483235930e-03  9.6579023217617608e-03  9.7712966260029288e-03  9.8710391605455680e-03  9.9754593775220769e-03  1.0095573103237864e-02  1.0233680681908060e-02  1.0382886789541801e-02  1.0527615497878159e-02  1.0645022836195350e-02  1.0706993918354451e-02  1.0682232114752431e-02  1.0537896562590089e-02  1.0240377748087165e-02  9.7550960511205535e-03  9.0455575596347215e-03  8.0721575979912155e-03  6.7912756879702869e-03  5.1550504026102442e-03  3.1119635571094958e-03  6.0814736448508726e-04  -2.4107537414922351e-03  -5.9973004997470533e-03  -1.0199626867897516e-02  -1.5058516875542532e-02  -2.0604298011807243e-02  -2.6853736598014901e-02  -3.3807185410697382e-02  -4.1446263438306520e-02  -4.9732335900085634e-02  -5.8606008770145365e-02  -6.7987758436073006e-02  -7.7779698132283012e-02  -8.7868355840732215e-02  -9.8128230034301087e-02  -1.0842581646748403e-01  -1.1862377057494879e-01  -1.2858489047181676e-01  -1.3817566074960480e-01  -1.4726917855894661e-01  -1.5574737350929091e-01  -1.6350251610010222e-01  -1.7043807662970104e-01  -1.7646904157280049e-01  -1.8152181983015442e-01  -1.8553387512139455e-01  -1.8845321355350853e-01  -1.9023783869687819e-01  -1.9085526466318203e-01  -1.9028215805977028e-01  -1.8850415694810169e-01  -1.8551589696413998e-01  -1.8132125823520975e-01  -1.7593382899622434e-01  -1.6937756683720856e-01  -1.6168762248093221e-01  -1.5291127038873589e-01  -1.4310887281360324e-01  -1.3235478355715524e-01  -1.2073807826869311e-01  -1.0836298452387653e-01  -9.5348878699623024e-02  -8.1829723304217811e-02  -6.7952840345078758e-02  -5.3876957049716311e-02  -3.9769515583471970e-02  -2.5803306712865206e-02  -1.2152558133991319e-02  1.0113286903402758e-03  1.3524153618303374e-02  2.5233146626626644e-02  3.6000804372459942e-02  4.5708130091183838e-02  5.4257137286092501e-02  6.1572557706775569e-02  6.7602777510961998e-02  7.2320102517215892e-02  7.5720513522833974e-02  7.7823104694264442e-02  7.8669390353275456e-02  7.8322608457856685e-02  7.6867039940145918e-02  7.4407213183718748e-02  7.1066703787394422e-02  6.6986122450318597e-02  6.2319869834880207e-02  5.7231375057247902e-02  5.1886829076590729e-02  4.6447818489779406e-02  4.1063643216174554e-02  3.5864325065403255e-02  3.0955286816849868e-02  2.6414395061611969e-02  2.2291603712957724e-02  1.8610956852968728e-02  1.5374347837006443e-02  1.2566263825297141e-02  1.0158771298836586e-02  8.1161621092400004e-03  6.3989053525313590e-03  4.9667675230707416e-03  3.7811319380340750e-03  2.8066426061167829e-03  2.0123281577637746e-03  1.3723170524147456e-03  8.6618920988065773e-04  4.7885842491611990e-04  1.9981304615985127e-04  2.1214650660330401e-05  -6.5246413743312728e-05  -7.4350526070587216e-05  -3.1858127223068864e-05  5.8317319681098842e-06  -1.7679615919649207e-05  8.8666719188432367e-05  4.2273669606097421e-04  9.9962286417631658e-04  1.8105015759854490e-03  2.8222852469488653e-03  3.9833916455154859e-03  5.2314637172929945e-03  6.5010473843439666e-03  7.7303995666709981e-03  8.8669631424169257e-03  9.8711539268885543e-03  1.0718338922218622e-02  1.1399064470741044e-02  1.1917766309342423e-02  1.2290284350011419e-02  1.2540542276561914e-02  1.2696738713357249e-02  1.2787365747220083e-02  1.2837342131636153e-02  1.2864540522198209e-02  1.2876996571297546e-02  1.2871086382776849e-02  1.2830902620157915e-02  1.2728908467523789e-02  1.2527701168983477e-02  1.2182434589240910e-02  1.1643248359986596e-02  1.0857049519546136e-02  9.7682417950667663e-03  8.3184293810998015e-03  6.4455609293037472e-03  4.0832266204882976e-03  1.1607701500655080e-03  -2.3954138708182425e-03  -6.6593737933655743e-03  -1.1702087778888133e-02  -1.7587202475375041e-02  -2.4366263990958252e-02  -3.2073705993297674e-02  -4.0721959642528269e-02  -5.0297169114202969e-02  -6.0756058930662070e-02  -7.2024463727893978e-02  -8.3997889016943106e-02  -9.6544241882783738e-02  -1.0950859024048404e-01  -1.2271953325865068e-01  -1.3599655121891693e-01  -1.4915759392456895e-01  -1.6202617958924134e-01  -1.7443740323542309e-01  -1.8624245789786847e-01  -1.9731150150695609e-01  -2.0753491774199936e-01  -2.1682318074365306e-01  -2.2510563045998816e-01  -2.3232849997833652e-01  -2.3845252052123722e-01  -2.4345038368918842e-01  -2.4730427784962863e-01  -2.5000365511220163e-01  -2.5154332785355832e-01  -2.5192195295192632e-01  -2.5114092998037235e-01  -2.4920371793765625e-01  -2.4611556696742340e-01  -2.4188365028836298e-01  -2.3651758052548894e-01  -2.3003028838231307e-01  -2.2243923227316387e-01  -2.1376789579567632e-01  -2.0404751171961794e-01  -1.9331892604570802e-01  -1.8163448770227233e-01  -1.6905982021784513e-01  -1.5567530333660057e-01  -1.4157707584884205e-01  -1.2687737000409882e-01  -1.1170400934726808e-01  -9.6198953441082272e-02  -8.0515853977135995e-02  -6.4816690528348833e-02  -4.9267671634596145e-02  -3.4034696349682009e-02  -1.9278750027380019e-02  -5.1516376995498483e-03  8.2075743662490038e-03  2.0675134605333829e-02  3.2144068581963878e-02  4.2524564056950806e-02  5.1743475727890835e-02  5.9743274773552811e-02  6.6480847724688361e-02  7.1926571656706614e-02  7.6064057819775821e-02  7.8890862735097322e-02  8.0420309742031529e-02  8.0684340929224135e-02  7.9737033391693579e-02  7.7658097383232927e-02  7.4555398826900265e-02  7.0565422285606458e-02  6.5850726270289109e-02  6.0593902307077022e-02  5.4988280999496333e-02  4.9226447159799291e-02  4.3488260128315255e-02  3.7930280966845392e-02  3.2678196378361689e-02  2.7823112585941848e-02  2.3421732617515990e-02  1.9499708812599999e-02  1.6057057143446136e-02  1.3074463172808673e-02  1.0519514348117797e-02  8.3522245283921912e-03  6.5295502549795751e-03  5.0088560418866971e-03  3.7504334384529238e-03  2.7192199911673987e-03  1.8858222251942312e-03  1.2268392636732299e-03  7.2439102942460892e-04  3.6454717393968910e-04  1.3464977622527994e-04  1.8352888628229489e-05  -8.9718466095925904e-06  1.4480757961897305e-06  -2.6173435200652972e-05  1.3147325890670251e-04  5.9457871847145476e-04  1.3504055472560051e-03  2.3721422200039186e-03  3.6122735749870103e-03  5.0065734795539272e-03  6.4811530286199735e-03  7.9606134517793675e-03  9.3754379329042421e-03  1.0667774751739453e-02  1.1795137501364036e-02  1.2731965954160178e-02  1.3469255924555361e-02  1.4012623129780067e-02  1.4379208599546453e-02  1.4593804241827428e-02  1.4684523321963662e-02  1.4678300078926149e-02  1.4596499897573520e-02  1.4450957323902846e-02  1.4240810323502518e-02  1.3950513613999302e-02  1.3549326749955405e-02  1.2992340440690045e-02  1.2222751476587150e-02  1.1174740140456531e-02  9.7761227572852345e-03  7.9500924151548313e-03  5.6158286650281946e-03  2.6883716331959776e-03  -9.2137675886383777e-04  -5.3055820944421976e-03  -1.0556726033048722e-02  -1.6763089064165862e-02  -2.4002809191174281e-02  -3.2337044909084602e-02  -4.1802807780897358e-02  -5.2406095075686186e-02  -6.4116099964326614e-02  -7.6861398417749957e-02  -9.0528962716927591e-02  -1.0496657332605480e-01  -1.1998873449095804e-01  -1.3538565037246281e-01  -1.5093430974147495e-01  -1.6641037899000466e-01  -1.8159950485750248e-01  -1.9630679500192275e-01  -2.1036362476843304e-01  -2.2363140738161885e-01  -2.3600243649162803e-01  -2.4739827313064008e-01  -2.5776635661176339e-01  -2.6707556876128069e-01  -2.7531141162260503e-01  -2.8247131585368623e-01  -2.8856043042067919e-01  -2.9358808922330687e-01  -2.9756502394154755e-01  -3.0050130455128765e-01  -3.0240493740091184e-01  -3.0328102880092195e-01  -3.0313141961831175e-01  -3.0195470784727324e-01  -2.9974659529317421e-01  -2.9650051259730276e-01  -2.9220849896031242e-01  -2.8686232412822255e-01  -2.8045485376766033e-01  -2.7298166293726278e-01  -2.6444289634176454e-01  -2.5484536310675293e-01  -2.4420483039913912e-01  -2.3254844469812008e-01  -2.1991716628946550e-01  -2.0636805406574543e-01  -1.9197618517197987e-01  -1.7683595583953518e-01  -1.6106149230156541e-01  -1.4478591767750179e-01  -1.2815928934601351e-01  -1.1134513923593187e-01  -9.4515714336072476e-02  -7.7846208462557992e-02  -6.1508462167034560e-02  -4.5664749509964006e-02  -3.0462325425723455e-02  -1.6029355903900293e-02  -2.4726875823803040e-03  1.0122340952118133e-02  2.1690139508005052e-02  3.2181540391105108e-02  4.1559518965624584e-02  4.9794717873839614e-02  5.6861582359478947e-02  6.2735872941047446e-02  6.7394197037318526e-02  7.0815985886119315e-02  7.2988023190874773e-02  7.3911194060329019e-02  7.3608587125375824e-02  7.2133533421335133e-02  6.9575764476701371e-02  6.6063824560740780e-02  6.1762344024732317e-02  5.6863780833398200e-02  5.1575541668329075e-02  4.6104587399382446e-02  4.0642268667800088e-02  3.5351985100223825e-02  3.0361401850398810e-02  2.5759749408972129e-02  2.1599618922470119e-02  1.7901958997430925e-02  1.4662771298882955e-02  1.1860190387323602e-02  9.4610306435776916e-03  7.4263087121817836e-03  5.7155896056058954e-03  4.2902069874710923e-03  3.1154842091455767e-03  2.1620490696785768e-03  1.4062763470430947e-03  8.2973879769885120e-04  4.1766976597860180e-04  1.5563101770897848e-04  2.5755149276769812e-05  -5.3481709925497563e-06  -3.3359392088790130e-05  1.6724480474566292e-04  7.4557862177658226e-04  1.6665750392775953e-03  2.8827489067108796e-03  4.3280165522375383e-03  5.9218808319793335e-03  7.5767821864685288e-03  9.2069084717338427e-03  1.0736067169718529e-02  1.2103466267526636e-02  1.3266849782390379e-02  1.4203072105137084e-02  1.4906550202681402e-02  1.5386180694072264e-02  1.5661267887447351e-02  1.5756882525279826e-02  1.5698942192852072e-02  1.5509239890774506e-02  1.5200671129205857e-02  1.4773006644765874e-02  1.4209667499919872e-02  1.3475988070266249e-02  1.2519303072063722e-02  1.1270829514107036e-02  9.6488201372320476e-03  7.5620637152410339e-03  4.9127646855893683e-03  1.5982835231008266e-03  -2.4879823710870375e-03  -7.4555481168668324e-03  -1.3414327170027380e-02  -2.0469752022937219e-02  -2.8715445787071865e-02  -3.8224134181013385e-02  -4.9037892236294629e-02  -6.1158903353754950e-02  -7.4541928165649488e-02  -8.9089744066417495e-02  -1.0465276521029243e-01  -1.2103366640426096e-01  -1.3799708482950268e-01  -1.5528353578855203e-01  -1.7262582919202776e-01  -1.8976576284360233e-01  -2.0646884300621907e-01  -2.2253524978635292e-01  -2.3780607274380916e-01  -2.5216475013122497e-01  -2.6553441736432815e-01  -2.7787234951400958e-01  -2.8916283055517028e-01  -2.9940965329976993e-01  -3.0862915777451599e-01  -3.1684436314350334e-01  -3.2408042274236354e-01  -3.3036138976701868e-01  -3.3570812684509449e-01  -3.4013712000293700e-01  -3.4365994949851936e-01  -3.4628319701052024e-01  -3.4800861421050122e-01  -3.4883343002703626e-01  -3.4875072075238872e-01  -3.4774980774017378e-01  -3.4581667826911477e-01  -3.4293445255240812e-01  -3.3908393442903245e-01  -3.3424430179179332e-01  -3.2839399782137241e-01  -3.2151189040410266e-01  -3.1357876665238438e-01  -3.0457921671440197e-01  -2.9450394121024503e-01  -2.8335247993366586e-01  -2.7113630584785758e-01  -2.5788215583690521e-01  -2.4363538622030589e-01  -2.2846304593481184e-01  -2.1245627888757815e-01  -1.9573161197326741e-01  -1.7843068666842801e-01  -1.6071806968791766e-01  -1.4277694622135706e-01  -1.2480275353519260e-01  -1.0699512618692804e-01  -8.9548841724662098e-02  -7.2644713929573348e-02  -5.6441508384415029e-02  -4.1069905618326547e-02  -2.6629302813862898e-02  -1.3187856483754593e-02  -7.8570496146079631e-04  1.0559145156807347e-02  2.0843151396078296e-02  3.0068900052358991e-02  3.8237305842948509e-02  4.5341514038047918e-02  5.1363536326473079e-02  5.6274414190147788e-02  6.0038340491996439e-02  6.2620640624474644e-02  6.3998808099167359e-02  6.4174978230436941e-02  6.3187500598950119e-02  6.1118929060340138e-02  5.8098072865178194e-02  5.4294855294060598e-02  4.9908396241823375e-02  4.5150451324523284e-02  4.0227473430569885e-02  3.5324696277715242e-02  3.0594785836037201e-02  2.6152180335669128e-02  2.2072815393135183e-02  1.8397947439073609e-02  1.5140408656540342e-02  1.2291753353973501e-02  9.8291694067945429e-03  7.7215083066535526e-03  5.9341862048415701e-03  4.4329607796677953e-03  3.1866965920741407e-03  2.1692296349753995e-03  1.3603639498338904e-03  7.4597412684434020e-04  3.1688521662834264e-04  6.6715102152679247e-05  -1.3403038472733698e-05  -3.9864827706960368e-05  1.9954357412431227e-04  8.8556574237519219e-04  1.9641037976179734e-03  3.3654137684415403e-03  5.0011037518372841e-03  6.7703528779823547e-03  8.5689367035169661e-03  1.0299313952487165e-02  1.1879096744745864e-02  1.3246536876300331e-02  1.4362557140461524e-02  1.5209688295727233e-02  1.5788710599080300e-02  1.6113886300555730e-02  1.6207504942897206e-02  1.6094203558379153e-02  1.5795309175065685e-02  1.5323368194101726e-02  1.4677098183841204e-02  1.3837173517125895e-02  1.2763422055626538e-02  1.1394010352731878e-02  9.6469035630938407e-03  7.4233125680480891e-03  4.6122068925304738e-03  1.0946611849932380e-03  -3.2528633120263877e-03  -8.5562459151975797e-03  -1.4941286158903581e-02  -2.2529430446465108e-02  -3.1430372740447410e-02  -4.1731479123401076e-02  -5.3485296895450819e-02  -6.6697168175205698e-02  -8.1315077138348887e-02  -9.7223650206050241e-02  -1.1424391869466617e-01  -1.3213990172390172e-01  -1.5063206339793278e-01  -1.6941634111311590e-01  -1.881861