<?xml version="1.0"?>
<VTKFile type="UnstructuredGrid"  version="0.1"  >
<UnstructuredGrid>
<Piece  NumberOfPoints="16641" NumberOfCells="16384">
<Points>
<DataArray  type="Float64"  NumberOfComponents="3"  format="ascii">0 0 0  0.0078125 0 0  0.015625 0 0  0.0234375 0 0  0.03125 0 0  0.0390625 0 0  0.046875 0 0  0.0546875 0 0  0.0625 0 0  0.0703125 0 0  0.078125 0 0  0.0859375 0 0  0.09375 0 0  0.1015625 0 0  0.109375 0 0  0.1171875 0 0  0.125 0 0  0.1328125 0 0  0.140625 0 0  0.1484375 0 0  0.15625 0 0  0.1640625 0 0  0.171875 0 0  0.1796875 0 0  0.1875 0 0  0.1953125 0 0  0.203125 0 0  0.2109375 0 0  0.21875 0 0  0.2265625 0 0  0.234375 0 0  0.2421875 0 0  0.25 0 0  0.2578125 0 0  0.265625 0 0  0.2734375 0 0  0.28125 0 0  0.2890625 0 0  0.296875 0 0  0.3046875 0 0  0.3125 0 0  0.3203125 0 0  0.328125 0 0  0.3359375 0 0  0.34375 0 0  0.3515625 0 0  0.359375 0 0  0.3671875 0 0  0.375 0 0  0.3828125 0 0  0.390625 0 0  0.3984375 0 0  0.40625 0 0  0.4140625 0 0  0.421875 0 0  0.4296875 0 0  0.4375 0 0  0.4453125 0 0  0.453125 0 0  0.4609375 0 0  0.46875 0 0  0.4765625 0 0  0.484375 0 0  0.4921875 0 0  0.5 0 0  0.5078125 0 0  0.515625 0 0  0.5234375 0 0  0.53125 0 0  0.5390625 0 0  0.546875 0 0  0.5546875 0 0  0.5625 0 0  0.5703125 0 0  0.578125 0 0  0.5859375 0 0  0.59375 0 0  0.6015625 0 0  0.609375 0 0  0.6171875 0 0  0.625 0 0  0.6328125 0 0  0.640625 0 0  0.6484375 0 0  0.65625 0 0  0.6640625 0 0  0.671875 0 0  0.6796875 0 0  0.6875 0 0  0.6953125 0 0  0.703125 0 0  0.7109375 0 0  0.71875 0 0  0.7265625 0 0  0.734375 0 0  0.7421875 0 0  0.75 0 0  0.7578125 0 0  0.765625 0 0  0.7734375 0 0  0.78125 0 0  0.7890625 0 0  0.796875 0 0  0.8046875 0 0  0.8125 0 0  0.8203125 0 0  0.828125 0 0  0.8359375 0 0  0.84375 0 0  0.8515625 0 0  0.859375 0 0  0.8671875 0 0  0.875 0 0  0.8828125 0 0  0.890625 0 0  0.8984375 0 0  0.90625 0 0  0.9140625 0 0  0.921875 0 0  0.9296875 0 0  0.9375 0 0  0.9453125 0 0  0.953125 0 0  0.9609375 0 0  0.96875 0 0  0.9765625 0 0  0.984375 0 0  0.9921875 0 0  1 0 0  0 0.0078125 0  0.0078125 0.0078125 0  0.015625 0.0078125 0  0.0234375 0.0078125 0  0.03125 0.0078125 0  0.0390625 0.0078125 0  0.046875 0.0078125 0  0.0546875 0.0078125 0  0.0625 0.0078125 0  0.0703125 0.0078125 0  0.078125 0.0078125 0  0.0859375 0.0078125 0  0.09375 0.0078125 0  0.1015625 0.0078125 0  0.109375 0.0078125 0  0.1171875 0.0078125 0  0.125 0.0078125 0  0.1328125 0.0078125 0  0.140625 0.0078125 0  0.1484375 0.0078125 0  0.15625 0.0078125 0  0.1640625 0.0078125 0  0.171875 0.0078125 0  0.1796875 0.0078125 0  0.1875 0.0078125 0  0.1953125 0.0078125 0  0.203125 0.0078125 0  0.2109375 0.0078125 0  0.21875 0.0078125 0  0.2265625 0.0078125 0  0.234375 0.0078125 0  0.2421875 0.0078125 0  0.25 0.0078125 0  0.2578125 0.0078125 0  0.265625 0.0078125 0  0.2734375 0.0078125 0  0.28125 0.0078125 0  0.2890625 0.0078125 0  0.296875 0.0078125 0  0.3046875 0.0078125 0  0.3125 0.0078125 0  0.3203125 0.0078125 0  0.328125 0.0078125 0  0.3359375 0.0078125 0  0.34375 0.0078125 0  0.3515625 0.0078125 0  0.359375 0.0078125 0  0.3671875 0.0078125 0  0.375 0.0078125 0  0.3828125 0.0078125 0  0.390625 0.0078125 0  0.3984375 0.0078125 0  0.40625 0.0078125 0  0.4140625 0.0078125 0  0.421875 0.0078125 0  0.4296875 0.0078125 0  0.4375 0.0078125 0  0.4453125 0.0078125 0  0.453125 0.0078125 0  0.4609375 0.0078125 0  0.46875 0.0078125 0  0.4765625 0.0078125 0  0.484375 0.0078125 0  0.4921875 0.0078125 0  0.5 0.0078125 0  0.5078125 0.0078125 0  0.515625 0.0078125 0  0.5234375 0.0078125 0  0.53125 0.0078125 0  0.5390625 0.0078125 0  0.546875 0.0078125 0  0.5546875 0.0078125 0  0.5625 0.0078125 0  0.5703125 0.0078125 0  0.578125 0.0078125 0  0.5859375 0.0078125 0  0.59375 0.0078125 0  0.6015625 0.0078125 0  0.609375 0.0078125 0  0.6171875 0.0078125 0  0.625 0.0078125 0  0.6328125 0.0078125 0  0.640625 0.0078125 0  0.6484375 0.0078125 0  0.65625 0.0078125 0  0.6640625 0.0078125 0  0.671875 0.0078125 0  0.6796875 0.0078125 0  0.6875 0.0078125 0  0.6953125 0.0078125 0  0.703125 0.0078125 0  0.7109375 0.0078125 0  0.71875 0.0078125 0  0.7265625 0.0078125 0  0.734375 0.0078125 0  0.7421875 0.0078125 0  0.75 0.0078125 0  0.7578125 0.0078125 0  0.765625 0.0078125 0  0.7734375 0.0078125 0  0.78125 0.0078125 0  0.7890625 0.0078125 0  0.796875 0.0078125 0  0.8046875 0.0078125 0  0.8125 0.0078125 0  0.8203125 0.0078125 0  0.828125 0.0078125 0  0.8359375 0.0078125 0  0.84375 0.0078125 0  0.8515625 0.0078125 0  0.859375 0.0078125 0  0.8671875 0.0078125 0  0.875 0.0078125 0  0.8828125 0.0078125 0  0.890625 0.0078125 0  0.8984375 0.0078125 0  0.90625 0.0078125 0  0.9140625 0.0078125 0  0.921875 0.0078125 0  0.9296875 0.0078125 0  0.9375 0.0078125 0  0.9453125 0.0078125 0  0.953125 0.0078125 0  0.9609375 0.0078125 0  0.96875 0.0078125 0  0.9765625 0.0078125 0  0.984375 0.0078125 0  0.9921875 0.0078125 0  1 0.0078125 0  0 0.015625 0  0.0078125 0.015625 0  0.015625 0.015625 0  0.0234375 0.015625 0  0.03125 0.015625 0  0.0390625 0.015625 0  0.046875 0.015625 0  0.0546875 0.015625 0  0.0625 0.015625 0  0.0703125 0.015625 0  0.078125 0.015625 0  0.0859375 0.015625 0  0.09375 0.015625 0  0.1015625 0.015625 0  0.109375 0.015625 0  0.1171875 0.015625 0  0.125 0.015625 0  0.1328125 0.015625 0  0.140625 0.015625 0  0.1484375 0.015625 0  0.15625 0.015625 0  0.1640625 0.015625 0  0.171875 0.015625 0  0.1796875 0.015625 0  0.1875 0.015625 0  0.1953125 0.015625 0  0.203125 0.015625 0  0.2109375 0.015625 0  0.21875 0.015625 0  0.2265625 0.015625 0  0.234375 0.015625 0  0.2421875 0.015625 0  0.25 0.015625 0  0.2578125 0.015625 0  0.265625 0.015625 0  0.2734375 0.015625 0  0.28125 0.015625 0  0.2890625 0.015625 0  0.296875 0.015625 0  0.3046875 0.015625 0  0.3125 0.015625 0  0.3203125 0.015625 0  0.328125 0.015625 0  0.3359375 0.015625 0  0.34375 0.015625 0  0.3515625 0.015625 0  0.359375 0.015625 0  0.3671875 0.015625 0  0.375 0.015625 0  0.3828125 0.015625 0  0.390625 0.015625 0  0.3984375 0.015625 0  0.40625 0.015625 0  0.4140625 0.015625 0  0.421875 0.015625 0  0.4296875 0.015625 0  0.4375 0.015625 0  0.4453125 0.015625 0  0.453125 0.015625 0  0.4609375 0.015625 0  0.46875 0.015625 0  0.4765625 0.015625 0  0.484375 0.015625 0  0.4921875 0.015625 0  0.5 0.015625 0  0.5078125 0.015625 0  0.515625 0.015625 0  0.5234375 0.015625 0  0.53125 0.015625 0  0.5390625 0.015625 0  0.546875 0.015625 0  0.5546875 0.015625 0  0.5625 0.015625 0  0.5703125 0.015625 0  0.578125 0.015625 0  0.5859375 0.015625 0  0.59375 0.015625 0  0.6015625 0.015625 0  0.609375 0.015625 0  0.6171875 0.015625 0  0.625 0.015625 0  0.6328125 0.015625 0  0.640625 0.015625 0  0.6484375 0.015625 0  0.65625 0.015625 0  0.6640625 0.015625 0  0.671875 0.015625 0  0.6796875 0.015625 0  0.6875 0.015625 0  0.6953125 0.015625 0  0.703125 0.015625 0  0.7109375 0.015625 0  0.71875 0.015625 0  0.7265625 0.015625 0  0.734375 0.015625 0  0.7421875 0.015625 0  0.75 0.015625 0  0.7578125 0.015625 0  0.765625 0.015625 0  0.7734375 0.015625 0  0.78125 0.015625 0  0.7890625 0.015625 0  0.796875 0.015625 0  0.8046875 0.015625 0  0.8125 0.015625 0  0.8203125 0.015625 0  0.828125 0.015625 0  0.8359375 0.015625 0  0.84375 0.015625 0  0.8515625 0.015625 0  0.859375 0.015625 0  0.8671875 0.015625 0  0.875 0.015625 0  0.8828125 0.015625 0  0.890625 0.015625 0  0.8984375 0.015625 0  0.90625 0.015625 0  0.9140625 0.015625 0  0.921875 0.015625 0  0.9296875 0.015625 0  0.9375 0.015625 0  0.9453125 0.015625 0  0.953125 0.015625 0  0.9609375 0.015625 0  0.96875 0.015625 0  0.9765625 0.015625 0  0.984375 0.015625 0  0.9921875 0.015625 0  1 0.015625 0  0 0.0234375 0  0.0078125 0.0234375 0  0.015625 0.0234375 0  0.0234375 0.0234375 0  0.03125 0.0234375 0  0.0390625 0.0234375 0  0.046875 0.0234375 0  0.0546875 0.0234375 0  0.0625 0.0234375 0  0.0703125 0.0234375 0  0.078125 0.0234375 0  0.0859375 0.0234375 0  0.09375 0.0234375 0  0.1015625 0.0234375 0  0.109375 0.0234375 0  0.1171875 0.0234375 0  0.125 0.0234375 0  0.1328125 0.0234375 0  0.140625 0.0234375 0  0.1484375 0.0234375 0  0.15625 0.0234375 0  0.1640625 0.0234375 0  0.171875 0.0234375 0  0.1796875 0.0234375 0  0.1875 0.0234375 0  0.1953125 0.0234375 0  0.203125 0.0234375 0  0.2109375 0.0234375 0  0.21875 0.0234375 0  0.2265625 0.0234375 0  0.234375 0.0234375 0  0.2421875 0.0234375 0  0.25 0.0234375 0  0.2578125 0.0234375 0  0.265625 0.0234375 0  0.2734375 0.0234375 0  0.28125 0.0234375 0  0.2890625 0.0234375 0  0.296875 0.0234375 0  0.3046875 0.0234375 0  0.3125 0.0234375 0  0.3203125 0.0234375 0  0.328125 0.0234375 0  0.3359375 0.0234375 0  0.34375 0.0234375 0  0.3515625 0.0234375 0  0.359375 0.0234375 0  0.3671875 0.0234375 0  0.375 0.0234375 0  0.3828125 0.0234375 0  0.390625 0.0234375 0  0.3984375 0.0234375 0  0.40625 0.0234375 0  0.4140625 0.0234375 0  0.421875 0.0234375 0  0.4296875 0.0234375 0  0.4375 0.0234375 0  0.4453125 0.0234375 0  0.453125 0.0234375 0  0.4609375 0.0234375 0  0.46875 0.0234375 0  0.4765625 0.0234375 0  0.484375 0.0234375 0  0.4921875 0.0234375 0  0.5 0.0234375 0  0.5078125 0.0234375 0  0.515625 0.0234375 0  0.5234375 0.0234375 0  0.53125 0.0234375 0  0.5390625 0.0234375 0  0.546875 0.0234375 0  0.5546875 0.0234375 0  0.5625 0.0234375 0  0.5703125 0.0234375 0  0.578125 0.0234375 0  0.5859375 0.0234375 0  0.59375 0.0234375 0  0.6015625 0.0234375 0  0.609375 0.0234375 0  0.6171875 0.0234375 0  0.625 0.0234375 0  0.6328125 0.0234375 0  0.640625 0.0234375 0  0.6484375 0.0234375 0  0.65625 0.0234375 0  0.6640625 0.0234375 0  0.671875 0.0234375 0  0.6796875 0.0234375 0  0.6875 0.0234375 0  0.6953125 0.0234375 0  0.703125 0.0234375 0  0.7109375 0.0234375 0  0.71875 0.0234375 0  0.7265625 0.0234375 0  0.734375 0.0234375 0  0.7421875 0.0234375 0  0.75 0.0234375 0  0.7578125 0.0234375 0  0.765625 0.0234375 0  0.7734375 0.0234375 0  0.78125 0.0234375 0  0.7890625 0.0234375 0  0.796875 0.0234375 0  0.8046875 0.0234375 0  0.8125 0.0234375 0  0.8203125 0.0234375 0  0.828125 0.0234375 0  0.8359375 0.0234375 0  0.84375 0.0234375 0  0.8515625 0.0234375 0  0.859375 0.0234375 0  0.8671
[...]
<PointData  Scalars="v_sol"> 
<DataArray  type="Float64"  Name="v_sol"  format="ascii">-1.8793091710751982e-06  -1.1099763026057111e-06  9.0092410887299019e-06  2.1080880319935839e-05  3.2333404426448064e-05  4.1449398679967324e-05  4.7756475172673474e-05  5.0946463677947495e-05  5.1041936410453337e-05  4.8370637020028245e-05  4.3506958161643682e-05  3.7185791055816626e-05  3.0201045018614498e-05  2.3310463164771109e-05  1.7159621546856822e-05  1.2232767305919194e-05  8.8297029466031864e-06  7.0635983657698389e-06  6.8727724393368457e-06  8.0411607834173788e-06  1.0225493702959834e-05  1.2990333686437769e-05  1.5852939861077430e-05  1.8337253617951128e-05  2.0030801754966413e-05  2.0632555467680673e-05  1.9977531139107839e-05  1.8027865803485023e-05  1.4830174040963626e-05  1.0451409856925368e-05  4.9143616108418171e-06  -1.8457464068893113e-06  -9.9910843119526625e-06  -1.9759403176114427e-05  -3.1424525836638239e-05  -4.5256687708588598e-05  -6.1494295034842861e-05  -8.0328399255699242e-05  -1.0189353639781073e-04  -1.2625769434984016e-04  -1.5340802034726731e-04  -1.8323362551353706e-04  -2.1550888013649843e-04  -2.4988069111240565e-04  -2.8586198757760584e-04  -3.2283293600680446e-04  -3.6005053501615025e-04  -3.9666689249728582e-04  -4.3175542060252463e-04  -4.6434349214899694e-04  -4.9344862883721099e-04  -5.1811536195637642e-04  -5.3744940812713675e-04  -5.5064655472985093e-04  -5.5701462213499553e-04  -5.5598761869798149e-04  -5.4713218709960749e-04  -5.3014742096335696e-04  -5.0485983275193054e-04  -4.7121550135751093e-04  -4.2927177905332988e-04  -3.7919076416976773e-04  -3.2123601364425822e-04  -2.5577395514842091e-04  -1.8328027462527084e-04  -1.0435111801267066e-04  -1.9718297347774576e-05  6.9733093954474495e-05  1.6294677849251150e-04  2.5867962265544006e-04  3.5549153418189971e-04  4.5174390497012228e-04  5.4560998457465473e-04  6.3510036800074456e-04  7.1810553473347389e-04  7.9245702292351822e-04  8.5600656439173905e-04  9.0672116860232609e-04  9.4278948806415526e-04  9.6273304906778750e-04  9.6551359964957163e-04  9.5062671764163643e-04  9.1817129078990243e-04  8.6888541325662620e-04  8.0414140637744339e-04  7.2589647088166229e-04  6.3660016107250882e-04  5.3906517074694331e-04  4.3631299540045841e-04  3.3140975027671983e-04  2.2730888193412430e-04  1.2671660278523614e-04  3.1991881984716400e-05  -5.4913119802511140e-05  -1.3247352331818821e-04  -1.9958099967544766e-04  -2.5551431449133221e-04  -2.9990491361172862e-04  -3.3270875747908583e-04  -3.5418977167288654e-04  -3.6491268313092092e-04  -3.6573644306734857e-04  -3.5779604583447284e-04  -3.4246200415704176e-04  -3.2127289738545864e-04  -2.9584486496064485e-04  -2.6776948189621863e-04  -2.3851563629394488e-04  -2.0935017234078308e-04  -1.8128724892617869e-04  -1.5506963753322532e-04  -1.3117884537640901e-04  -1.0986660250273769e-04  -9.1198527148681453e-05  -7.5101003163405530e-05  -6.1404394929364463e-05  -4.9877463062293334e-05  -4.0251824912849615e-05  -3.2235493956662505e-05  -2.5521022295150486e-05  -1.9788366287110344e-05  -1.4717537657659051e-05  -1.0005257617156299e-05  -5.4237089088504549e-06  -8.9697967710711157e-07  3.2972152820296073e-06  6.2618971552062416e-06  6.0500440250206384e-06  8.4342811246781297e-07  1.0179776257600242e-05  1.0903423843669872e-05  -4.3729199134861555e-05  -1.0585898414387360e-04  -1.6336987453390988e-04  -2.0970641616522187e-04  -2.4169524979658429e-04  -2.5776687834346760e-04  -2.5806843082772638e-04  -2.4428426125469089e-04  -2.1937198753268317e-04  -1.8710128971510578e-04  -1.5153519752931818e-04  -1.1653666447597226e-04  -8.5383309520267752e-05  -6.0520820704244497e-05  -4.3452451824431517e-05  -3.4734075567100866e-05  -3.4038265085048444e-05  -4.0259213304628052e-05  -5.1649024477180753e-05  -6.5992736819353673e-05  -8.0834209546878227e-05  -9.3751103527875431e-05  -1.0264778478033452e-04  -1.0600384049662604e-04  -1.0300298954308433e-04  -9.3487343827613171e-05  -7.7735072582351154e-05  -5.6125459146995125e-05  -2.8802616707429176e-05  4.5489339363525436e-06  4.4751902940193324e-05  9.3018403084408079e-05  1.5074176779507134e-04  2.1929110412350939e-04  2.9986892715818184e-04  3.9343667478907601e-04  5.0067294197480910e-04  6.2192550737665616e-04  7.5714030638879954e-04  9.0577516747233303e-04  1.0667169087649098e-03  1.2382191533324770e-03  1.4178722855123535e-03  1.6026126077187005e-03  1.7887736633144323e-03  1.9721798446988583e-03  2.1482778083962524e-03  2.3122967001274987e-03  2.4594236976580781e-03  2.5849798314903391e-03  2.6845811294759128e-03  2.7542727186981608e-03  2.7906288834511641e-03  2.7908149046293393e-03  2.7526124437097033e-03  2.6744137698347091e-03  2.5551938360410076e-03  2.3944702990802897e-03  2.1922633024231818e-03  1.9490657675766501e-03  1.6658323051002035e-03  1.3439939094371960e-03  9.8550182875559297e-04  5.9289972208971422e-04  1.6942208715165044e-04  -2.8088865046781527e-04  -7.5305710367075222e-04  -1.2410561824627631e-03  -1.7377128179803629e-03  -2.2346587306619325e-03  -2.7223487399459807e-03  -3.1901690234911687e-03  -3.6266540735036576e-03  -4.0198245847665294e-03  -4.3576486042609889e-03  -4.6286144365626381e-03  -4.8223854029926516e-03  -4.9304926374500379e-03  -4.9470038413795660e-03  -4.8690977828067519e-03  -4.6974732950290209e-03  -4.4365294299180819e-03  -4.0942759594235108e-03  -3.6819619542966075e-03  -3.2134467118130694e-03  -2.7043717304633071e-03  -2.1712208047390282e-03  -1.6303710953741979e-03  -1.0972355314202576e-03  -5.8558069643346953e-04  -1.0707200142091068e-04  3.2894111491009800e-04  7.1542726047450235e-04  1.0475208124065859e-03  1.3222920253849772e-03  1.5385150410794097e-03  1.6964906312447266e-03  1.7979466718541844e-03  1.8460004195630245e-03  1.8451338275795744e-03  1.8011175939489990e-03  1.7208277239362587e-03  1.6119291414006566e-03  1.4824430426245777e-03  1.3402527824496922e-03  1.1926249409007434e-03  1.0458192234751016e-03  9.0483820565100148e-04  7.7333449863240206e-04  6.5366126843223417e-04  5.4702965911379662e-04  4.5372720159489129e-04  3.7335289966115707e-04  3.0503283900053344e-04  2.4759293367109095e-04  1.9967799865128633e-04  1.5982065669582410e-04  1.2647271545737683e-04  9.8026485090041825e-05  7.2854126293333353e-05  4.9418531449150441e-05  2.6506825198938492e-05  3.6819587882079301e-06  -1.7770611033768421e-05  -3.3570124127263649e-05  -3.2151592671657727e-05  -1.4130249871521368e-06  2.1913586792836643e-05  -4.3181310129651030e-05  -2.4352714908952558e-04  -4.7315555062542064e-04  -6.8867721840155623e-04  -8.6428660510108027e-04  -9.8600880751943069e-04  -1.0472670265021782e-03  -1.0482598378655109e-03  -9.9511596879418591e-04  -8.9870034774678373e-04  -7.7294812578563438e-04  -6.3299945799543040e-04  -4.9343050705992367e-04  -3.6681297836067833e-04  -2.6272565984455232e-04  -1.8722532331768538e-04  -1.4270646257004806e-04  -1.2804883652121427e-04  -1.3897179591212106e-04  -1.6856228620167928e-04  -2.0798787625534750e-04  -2.4741143570819712e-04  -2.7707144756378594e-04  -2.8839360723992833e-04  -2.7490257879437570e-04  -2.3267286308117062e-04  -1.6014193194136908e-04  -5.7300550816205774e-05  7.5495515324776146e-05  2.3869079257081863e-04  4.3427415004822321e-04  6.6588077193582146e-04  9.3829974916877744e-04  1.2566533646171934e-03  1.6255691652707356e-03  2.0485499257009362e-03  2.5275614896097471e-03  3.0627354705654534e-03  3.6520816194727805e-03  4.2911830311912983e-03  4.9729243192847697e-03  5.6873316422744137e-03  6.4215903296607393e-03  7.1602775030078988e-03  7.8858176005935695e-03  8.5791394487030655e-03  9.2204859195705643e-03  9.7903054263782686e-03  1.0270140317914849e-02  1.0643428566548006e-02  1.0896144844705078e-02  1.1017232794335240e-02  1.0998807937116953e-02  1.0836141943597709e-02  1.0527463948347044e-02  1.0073629219048346e-02  9.4777144226108716e-03  8.7445956634426766e-03  7.8805569584463036e-03  6.8929684950036676e-03  5.7900571323089497e-03  4.5807841167556608e-03  3.2748296922588387e-03  1.8826811763612583e-03  4.1580784290102217e-04  -1.1130956354132914e-03  -2.6898216965511213e-03  -4.2983501095875095e-03  -5.9205692931976707e-03  -7.5360600072579519e-03  -9.1219829308483765e-03  -1.0653117894925514e-02  -1.2102096645686270e-02  -1.3439868271448892e-02  -1.4636422531237854e-02  -1.5661777435359254e-02  -1.6487210853366265e-02  -1.7086683510033323e-02  -1.7438366729074794e-02  -1.7526156200043538e-02  -1.7341029686601901e-02  -1.6882099430585763e-02  -1.6157222177681937e-02  -1.5183064328424601e-02  -1.3984573563905778e-02  -1.2593876766263532e-02  -1.1048694114523208e-02  -9.3904217301712996e-03  -7.6620786843445568e-03  -5.9063272197124846e-03  -4.1637596575194637e-03  -2.4715979803816663e-03  -8.6287994514733192e-04  6.3388032474042170e-04  1.9946560603053432e-03  3.1996642370095418e-03  4.2331200246511595e-03  5.0831814514162204e-03  5.7422067731285444e-03  6.2073278786139137e-03  6.4812008425002973e-03  6.5726721284479987e-03  6.4970458960473361e-03  6.2756882211529212e-03  5.9348553619911976e-03  5.5038406766812773e-03  5.0127250653013112e-03  4.4901187600571262e-03  3.9612672431217980e-03  3.4467768376238890e-03  2.9620506110007629e-03  2.5173697278155615e-03  2.1184515902023348e-03  1.7672748636262019e-03  1.4629741604769732e-03  1.2026541003393389e-03  9.8203650063609176e-04  7.9591794379787616e-04  6.3847669304283104e-04  5.0351087930377214e-04  3.8474012192590839e-04  2.7632170456362272e-04  1.7380663762906371e-04  7.5789578256248429e-05  -1.3413628863333178e-05  -7.9463398194812133e-05  -9.4099659750577881e-05  -1.1433464744303429e-05  2.5560914967325191e-05  -2.0669355518876427e-04  -6.1416316016464113e-04  -1.0643816958711247e-03  -1.4844650507980859e-03  -1.8263381617732045e-03  -2.0617345069755891e-03  -2.1774043670037941e-03  -2.1736840589834032e-03  -2.0626036408682674e-03  -1.8653394171929236e-03  -1.6089386242642216e-03  -1.3227774293578375e-03  -1.0352231404765855e-03  -7.7088520951173036e-04  -5.4865623162239435e-04  -3.8057045564505120e-04  -2.7138222495891047e-04  -2.1872053997186284e-04  -2.1370398270637917e-04  -2.4197136884085874e-04  -2.8514218180151297e-04  -3.2270828669510906e-04  -3.3424383451570748e-04  -3.0163170776032128e-04  -2.1083524352174244e-04  -5.2715492442530187e-05  1.7741017802425801e-04  4.8137859611553006e-04  8.6042842837827881e-04  1.3172774167275812e-03  1.8572764279091100e-03  2.4882744754137565e-03  3.2193591305127393e-03  4.0590263433744498e-03  5.0133865946250357e-03  6.0847610806954930e-03  7.2706918143520529e-03  8.5632174012698157e-03  9.9483127481001122e-03  1.1405537826060070e-02  1.2908041951958623e-02  1.4423066880093359e-02  1.5913016837512173e-02  1.7337063191014919e-02  1.8653161212092779e-02  1.9820280839272418e-02  2.0800612282472264e-02  2.1561505342780032e-02  2.2076939740366244e-02  2.2328400372803411e-02  2.2305119971121598e-02  2.2003739401793117e-02  2.1427502220248664e-02  2.0585138030541638e-02  1.9489597542325762e-02  1.8156786118417034e-02  1.6604412040302972e-02  1.4851028571367227e-02  1.2915312785365526e-02  1.0815597275814376e-02  8.5696446094434952e-03  6.1946442324909440e-03  3.7074015526039009e-03  1.1246852574958628e-03  -1.5363016913340080e-03  -4.2573648038202704e-03  -7.0187118616924019e-03  -9.7983380395792498e-03  -1.2571452352870556e-02  -1.5309995078788510e-02  -1.7982307886895407e-02  -2.0553023331596514e-02  -2.2983240023900689e-02  -2.5231046566075794e-02  -2.7252444147731869e-02  -2.9002690494758933e-02  -3.0438049865492124e-02  -3.1517883542939266e-02  -3.2206960671856730e-02  -3.2477810572846696e-02  -3.2312898531694965e-02  -3.1706383978619537e-02  -3.0665236224405430e-02  -2.9209533539108171e-02  -2.7371859606344508e-02  -2.5195820938997908e-02  -2.2733826355213673e-02  -2.0044368537905859e-02  -1.7189114982005073e-02  -1.4230132876738048e-02  -1.1227543612709140e-02  -8.2378269268397770e-03  -5.3128882877079174e-03  -2.4998737315828556e-03  1.5841603545453314e-04  2.6227853056461597e-03  4.8569424627555573e-03  6.8272396747823356e-03  8.5032022357218635e-03  9.8590358242951984e-03  1.0876034759165217e-02  1.1545492243478546e-02  1.1871429132942656e-02  1.1872328030340660e-02  1.1581176863536609e-02  1.1043496872870623e-02  1.0313549620163738e-02  9.4494024928544404e-03  8.5078012548181325e-03  7.5397685372972758e-03  6.5875604987736666e-03  5.6832078545943363e-03  4.8484936654871920e-03  4.0959770664482330e-03  3.4305878419722698e-03  2.8513641435190776e-03  2.3530307434229121e-03  1.9272714597614669e-03  1.5636967532805827e-03  1.2506347992619691e-03  9.7596041254641836e-04  7.2826471608965953e-04  4.9867334730344299e-04  2.8379630899934429e-04  8.9832378422178999e-05  -6.0837112063218053e-05  -1.2515713246391452e-04  -2.0867277814685257e-05  2.5222604185694819e-05  -4.7218953763509755e-04  -1.1488340723962926e-03  -1.8620901667499737e-03  -2.5160238870022330e-03  -3.0418888308104707e-03  -3.3970892894842814e-03  -3.5620337189781531e-03  -3.5383677916514832e-03  -3.3459255394604199e-03  -3.0184453957552977e-03  -2.5983337934588351e-03  -2.1311815270641291e-03  -1.6607131795807566e-03  -1.2246625432199300e-03  -8.5181182370002134e-04  -5.6020346564195132e-04  -3.5639081265258704e-04  -2.3555583786275707e-04  -1.8237699190405511e-04  -1.7262697654189842e-04  -1.7553962147416396e-04  -1.5692404991988012e-04  -8.2787508003799581e-05  7.7085400630388576e-05  3.4639751215095849e-04  7.4123226313877952e-04  1.2709656506167853e-03  1.9408973006225451e-03  2.7556022808113488e-03  3.7216612202959072e-03  4.8486644352510122e-03  6.1481246178690550e-03  7.6307859999684563e-03  9.3033204491302177e-03  1.1165331513901181e-02  1.3207130072939482e-02  1.5408311003507213e-02  1.7737031649872240e-02  2.0150017260871563e-02  2.2593460950216176e-02  2.5004972495213895e-02  2.7316571487352462e-02  2.9458502498267258e-02  3.1363465871001278e-02  3.2970751122266932e-02  3.4229757684540438e-02  3.5102491353235017e-02  3.5564804316228299e-02  3.5606354734724788e-02  3.5229453481914148e-02  3.4447093158321167e-02  3.3280511835251499e-02  3.1756627337808332e-02  2.9905620320419470e-02  2.7758854195624915e-02  2.5347235920077715e-02  2.2700048571654096e-02  1.9844236276855321e-02  1.6804087072595297e-02  1.3601252222376334e-02  1.0255034362872480e-02  6.7828855215802102e-03  3.2010674721974666e-03  -4.7456922956983443e-04  -4.2277180302446610e-03  -8.0406938343267360e-03  -1.1893484990755734e-02  -1.5762816706153610e-02  -1.9621270748083754e-02  -2.3436521488407188e-02  -2.7170757064200898e-02  -3.0780374149090801e-02  -3.4216039248658625e-02  -3.7423215531270669e-02  -4.0343239805914310e-02  -4.2915011251757847e-02  -4.5077301092286005e-02  -4.6771625577553044e-02  -4.7945541216639964e-02  -4.8556125659040765e-02  -4.8573327142084947e-02  -4.7982812679295245e-02  -4.6787937067349343e-02  -4.5010515937426797e-02  -4.2690208873269068e-02  -3.9882493841215221e-02  -3.6655416326106395e-02  -3.3085480038560440e-02  -2.9253182748840312e-02  -2.5238751231118187e-02  -2.1118592505824169e-02  -1.6962862225733039e-02  -1.2834373868617141e-02  -8.7888697643779441e-03  -4.8764654504110426e-03  -1.1438831586078446e-03  2.3630791423380607e-03  5.5975167827199013e-03  8.5105341211282378e-03  1.1052115581274443e-02  1.3174079328353346e-02  1.4834971837332995e-02  1.6006173065316133e-02  1.6677938609309006e-02  1.6863826901343752e-02  1.6602134363677658e-02  1.5953623036158954e-02  1.4995789928111345e-02  1.3814846860439309e-02  1.2497107439522518e-02  1.1121444040527355e-02  9.7539642754977205e-03  8.4453247278952915e-03  7.2304324576722553e-03  6.1298673646967552e-03  5.1522338456188432e-03  4.2967565981446090e-03  3.5556726409919329e-03  2.9162435921411146e-03  2.3624566011139435e-03  1.8766688079641530e-03  1.4415836001376154e-03  1.0429824617306342e-03  6.7377589567173659e-04  3.3938893629862900e-04  6.6236084132851409e-05  -9.1835063852946616e-05  -2.7538430952506885e-05  2.2883515065253843e-05  -8.2656813182059997e-04  -1.8339307847689513e-03  -2.8496300108705498e-03  -3.7590269295695897e-03  -4.4751608552266522e-03  -4.9429767012216788e-03  -5.1386591529535858e-03  -5.0678820969360817e-03  -4.7613583540144005e-03  -4.2683717167681951e-03  -3.6491300918270251e-03  -2.9670596170463547e-03  -2.2819514220399554e-03  -1.6445248458290954e-03  -1.0925968890182127e-03  -6.4877497487624480e-04  -3.1946174904658398e-04  -9.4977733250122304e-05  4.9274094504327164e-05  1.5054012158410404e-04  2.5524005202402886e-04  4.1433802283892031e-04  6.7800212052756843e-04  1.0904801642446177e-03  1.6864307039198227e-03  2.4897847715864775e-03  3.5154638124207894e-03  4.7731722083817138e-03  6.2715446548170569e-03  8.0207035551237808e-03  1.0031972814364843e-02  1.2314766818482458e-02  1.4871817202791144e-02  1.7694308637901678e-02  2.0758114774840068e-02  2.4021647290012473e-02  2.7425397414483906e-02  3.0893190566345992e-02  3.4335224611497447e-02  3.7652849521411194e-02  4.0744741907400669e-02  4.3513779048195991e-02  4.5873695312411734e-02  4.7754595231970315e-02  4.9106602659187829e-02  4.9901290352616035e-02  5.0130944563043393e-02  4.9806063865564021e-02  4.8951701361212581e-02  4.7603308401816369e-02  4.5802651489731415e-02  4.3594214812277050e-02  4.1022317925899734e-02  3.8129019408761171e-02  3.4952762048832610e-02  3.1527651426143631e-02  2.7883234282199569e-02  2.4044650456181645e-02  2.0033048630811554e-02  1.5866186562452769e-02  1.1559158150328482e-02  7.1252139784571209e-03  2.5766557486673961e-03  -2.0742055831141724e-03  -6.8140326654346677e-03  -1.1627392076427445e-02  -1.6495645331711564e-02  -2.1395821315258686e-02  -2.6299510121522460e-02  -3.1171832637221616e-02  -3.5970567034971278e-02  -4.0645533508850487e-02  -4.5138363247793384e-02  -4.9382792057308333e-02  -5.3305622239017941e-02  -5.6828478271085635e-02  -5.9870438610845601e-02  -6.2351543476624943e-02  -6.4197074305489710e-02  -6.5342359105679079e-02  -6.5737714227685068e-02  -6.5353015906414513e-02  -6.4181316370992239e-02  -6.2240942494807383e-02  -5.9575632656324831e-02  -5.6252499004224486e-02  -5.2357903659102693e-02  -4.7991663404442095e-02  -4.3260280797374810e-02  -3.8270068495179360e-02  -3.3121060350716380e-02  -2.7902477611414216e-02  -2.2690273825492539e-02  -1.7546969969714259e-02  -1.2523664600648073e-02  -7.6638000021732131e-03  -3.0080017393362139e-03  1.4009076482073041e-03  5.5137718653588659e-03  9.2729324527343216e-03  1.2612976511070363e-02  1.5464936639846029e-02  1.7763775030948750e-02  1.9458075791720070e-02  2.0520002729594679e-02  2.0953103903133007e-02  2.0795765257037174e-02  2.0119104431334182e-02  1.9019573003718728e-02  1.7607956042321047e-02  1.5997276724993424e-02  1.4292071136892239e-02  1.2580728239928389e-02  1.0931503007825900e-02  9.3918413742286513e-03  7.9900730651296260e-03  6.7383831462372824e-03  5.6361595232725095e-03  4.6731683107074503e-03  3.8323957784773491e-03  3.0927170703565952e-03  2.4317971362587450e-03  1.8297075948596764e-03  1.2739348397345872e-03  7.6583943766717934e-04  3.3065940289633388e-04  2.5568783610537654e-05  -3.0720867780117001e-05  1.9822029599951418e-05  -1.2595554191235710e-03  -2.6584105812797174e-03  -4.0156835470430115e-03  -5.1985296363794356e-03  -6.1033839377891358e-03  -6.6653744794759121e-03  -6.8601129280096151e-03  -6.7017544469880367e-03  -6.2365639439502457e-03  -5.5335397740619982e-03  -4.6737517916933431e-03  -3.7400747470991849e-03  -2.8084898593608060e-03  -1.9415099626467086e-03  -1.1837538897253228e-03  -5.5938886280485454e-04  -7.1097764367445343e-05  2.9963796899385218e-04  5.9091600939222986e-04  8.5723438747195308e-04  1.1645502266213702e-03  1.5837122700715094e-03  2.1830546066442906e-03  3.0216346890806420e-03  4.1448825872327216e-03  5.5839023059107793e-03  7.3583294806897140e-03  9.4810593137586944e-03  1.1962198436592358e-02  1.4809916223234172e-02  1.8027392450701216e-02  2.1606915905776285e-02  2.5523319774972061e-02  2.9728869367640985e-02  3.4150865908391129e-02  3.8692388620317555e-02  4.3236152297275558e-02  4.7651219194634969e-02  5.1801957445713011e-02  5