<?xml version="1.0"?>
<VTKFile type="UnstructuredGrid"  version="0.1"  >
<UnstructuredGrid>
<Piece  NumberOfPoints="16641" NumberOfCells="16384">
<Points>
<DataArray  type="Float64"  NumberOfComponents="3"  format="ascii">0 0 0  0.0078125 0 0  0.015625 0 0  0.0234375 0 0  0.03125 0 0  0.0390625 0 0  0.046875 0 0  0.0546875 0 0  0.0625 0 0  0.0703125 0 0  0.078125 0 0  0.0859375 0 0  0.09375 0 0  0.1015625 0 0  0.109375 0 0  0.1171875 0 0  0.125 0 0  0.1328125 0 0  0.140625 0 0  0.1484375 0 0  0.15625 0 0  0.1640625 0 0  0.171875 0 0  0.1796875 0 0  0.1875 0 0  0.1953125 0 0  0.203125 0 0  0.2109375 0 0  0.21875 0 0  0.2265625 0 0  0.234375 0 0  0.2421875 0 0  0.25 0 0  0.2578125 0 0  0.265625 0 0  0.2734375 0 0  0.28125 0 0  0.2890625 0 0  0.296875 0 0  0.3046875 0 0  0.3125 0 0  0.3203125 0 0  0.328125 0 0  0.3359375 0 0  0.34375 0 0  0.3515625 0 0  0.359375 0 0  0.3671875 0 0  0.375 0 0  0.3828125 0 0  0.390625 0 0  0.3984375 0 0  0.40625 0 0  0.4140625 0 0  0.421875 0 0  0.4296875 0 0  0.4375 0 0  0.4453125 0 0  0.453125 0 0  0.4609375 0 0  0.46875 0 0  0.4765625 0 0  0.484375 0 0  0.4921875 0 0  0.5 0 0  0.5078125 0 0  0.515625 0 0  0.5234375 0 0  0.53125 0 0  0.5390625 0 0  0.546875 0 0  0.5546875 0 0  0.5625 0 0  0.5703125 0 0  0.578125 0 0  0.5859375 0 0  0.59375 0 0  0.6015625 0 0  0.609375 0 0  0.6171875 0 0  0.625 0 0  0.6328125 0 0  0.640625 0 0  0.6484375 0 0  0.65625 0 0  0.6640625 0 0  0.671875 0 0  0.6796875 0 0  0.6875 0 0  0.6953125 0 0  0.703125 0 0  0.7109375 0 0  0.71875 0 0  0.7265625 0 0  0.734375 0 0  0.7421875 0 0  0.75 0 0  0.7578125 0 0  0.765625 0 0  0.7734375 0 0  0.78125 0 0  0.7890625 0 0  0.796875 0 0  0.8046875 0 0  0.8125 0 0  0.8203125 0 0  0.828125 0 0  0.8359375 0 0  0.84375 0 0  0.8515625 0 0  0.859375 0 0  0.8671875 0 0  0.875 0 0  0.8828125 0 0  0.890625 0 0  0.8984375 0 0  0.90625 0 0  0.9140625 0 0  0.921875 0 0  0.9296875 0 0  0.9375 0 0  0.9453125 0 0  0.953125 0 0  0.9609375 0 0  0.96875 0 0  0.9765625 0 0  0.984375 0 0  0.9921875 0 0  1 0 0  0 0.0078125 0  0.0078125 0.0078125 0  0.015625 0.0078125 0  0.0234375 0.0078125 0  0.03125 0.0078125 0  0.0390625 0.0078125 0  0.046875 0.0078125 0  0.0546875 0.0078125 0  0.0625 0.0078125 0  0.0703125 0.0078125 0  0.078125 0.0078125 0  0.0859375 0.0078125 0  0.09375 0.0078125 0  0.1015625 0.0078125 0  0.109375 0.0078125 0  0.1171875 0.0078125 0  0.125 0.0078125 0  0.1328125 0.0078125 0  0.140625 0.0078125 0  0.1484375 0.0078125 0  0.15625 0.0078125 0  0.1640625 0.0078125 0  0.171875 0.0078125 0  0.1796875 0.0078125 0  0.1875 0.0078125 0  0.1953125 0.0078125 0  0.203125 0.0078125 0  0.2109375 0.0078125 0  0.21875 0.0078125 0  0.2265625 0.0078125 0  0.234375 0.0078125 0  0.2421875 0.0078125 0  0.25 0.0078125 0  0.2578125 0.0078125 0  0.265625 0.0078125 0  0.2734375 0.0078125 0  0.28125 0.0078125 0  0.2890625 0.0078125 0  0.296875 0.0078125 0  0.3046875 0.0078125 0  0.3125 0.0078125 0  0.3203125 0.0078125 0  0.328125 0.0078125 0  0.3359375 0.0078125 0  0.34375 0.0078125 0  0.3515625 0.0078125 0  0.359375 0.0078125 0  0.3671875 0.0078125 0  0.375 0.0078125 0  0.3828125 0.0078125 0  0.390625 0.0078125 0  0.3984375 0.0078125 0  0.40625 0.0078125 0  0.4140625 0.0078125 0  0.421875 0.0078125 0  0.4296875 0.0078125 0  0.4375 0.0078125 0  0.4453125 0.0078125 0  0.453125 0.0078125 0  0.4609375 0.0078125 0  0.46875 0.0078125 0  0.4765625 0.0078125 0  0.484375 0.0078125 0  0.4921875 0.0078125 0  0.5 0.0078125 0  0.5078125 0.0078125 0  0.515625 0.0078125 0  0.5234375 0.0078125 0  0.53125 0.0078125 0  0.5390625 0.0078125 0  0.546875 0.0078125 0  0.5546875 0.0078125 0  0.5625 0.0078125 0  0.5703125 0.0078125 0  0.578125 0.0078125 0  0.5859375 0.0078125 0  0.59375 0.0078125 0  0.6015625 0.0078125 0  0.609375 0.0078125 0  0.6171875 0.0078125 0  0.625 0.0078125 0  0.6328125 0.0078125 0  0.640625 0.0078125 0  0.6484375 0.0078125 0  0.65625 0.0078125 0  0.6640625 0.0078125 0  0.671875 0.0078125 0  0.6796875 0.0078125 0  0.6875 0.0078125 0  0.6953125 0.0078125 0  0.703125 0.0078125 0  0.7109375 0.0078125 0  0.71875 0.0078125 0  0.7265625 0.0078125 0  0.734375 0.0078125 0  0.7421875 0.0078125 0  0.75 0.0078125 0  0.7578125 0.0078125 0  0.765625 0.0078125 0  0.7734375 0.0078125 0  0.78125 0.0078125 0  0.7890625 0.0078125 0  0.796875 0.0078125 0  0.8046875 0.0078125 0  0.8125 0.0078125 0  0.8203125 0.0078125 0  0.828125 0.0078125 0  0.8359375 0.0078125 0  0.84375 0.0078125 0  0.8515625 0.0078125 0  0.859375 0.0078125 0  0.8671875 0.0078125 0  0.875 0.0078125 0  0.8828125 0.0078125 0  0.890625 0.0078125 0  0.8984375 0.0078125 0  0.90625 0.0078125 0  0.9140625 0.0078125 0  0.921875 0.0078125 0  0.9296875 0.0078125 0  0.9375 0.0078125 0  0.9453125 0.0078125 0  0.953125 0.0078125 0  0.9609375 0.0078125 0  0.96875 0.0078125 0  0.9765625 0.0078125 0  0.984375 0.0078125 0  0.9921875 0.0078125 0  1 0.0078125 0  0 0.015625 0  0.0078125 0.015625 0  0.015625 0.015625 0  0.0234375 0.015625 0  0.03125 0.015625 0  0.0390625 0.015625 0  0.046875 0.015625 0  0.0546875 0.015625 0  0.0625 0.015625 0  0.0703125 0.015625 0  0.078125 0.015625 0  0.0859375 0.015625 0  0.09375 0.015625 0  0.1015625 0.015625 0  0.109375 0.015625 0  0.1171875 0.015625 0  0.125 0.015625 0  0.1328125 0.015625 0  0.140625 0.015625 0  0.1484375 0.015625 0  0.15625 0.015625 0  0.1640625 0.015625 0  0.171875 0.015625 0  0.1796875 0.015625 0  0.1875 0.015625 0  0.1953125 0.015625 0  0.203125 0.015625 0  0.2109375 0.015625 0  0.21875 0.015625 0  0.2265625 0.015625 0  0.234375 0.015625 0  0.2421875 0.015625 0  0.25 0.015625 0  0.2578125 0.015625 0  0.265625 0.015625 0  0.2734375 0.015625 0  0.28125 0.015625 0  0.2890625 0.015625 0  0.296875 0.015625 0  0.3046875 0.015625 0  0.3125 0.015625 0  0.3203125 0.015625 0  0.328125 0.015625 0  0.3359375 0.015625 0  0.34375 0.015625 0  0.3515625 0.015625 0  0.359375 0.015625 0  0.3671875 0.015625 0  0.375 0.015625 0  0.3828125 0.015625 0  0.390625 0.015625 0  0.3984375 0.015625 0  0.40625 0.015625 0  0.4140625 0.015625 0  0.421875 0.015625 0  0.4296875 0.015625 0  0.4375 0.015625 0  0.4453125 0.015625 0  0.453125 0.015625 0  0.4609375 0.015625 0  0.46875 0.015625 0  0.4765625 0.015625 0  0.484375 0.015625 0  0.4921875 0.015625 0  0.5 0.015625 0  0.5078125 0.015625 0  0.515625 0.015625 0  0.5234375 0.015625 0  0.53125 0.015625 0  0.5390625 0.015625 0  0.546875 0.015625 0  0.5546875 0.015625 0  0.5625 0.015625 0  0.5703125 0.015625 0  0.578125 0.015625 0  0.5859375 0.015625 0  0.59375 0.015625 0  0.6015625 0.015625 0  0.609375 0.015625 0  0.6171875 0.015625 0  0.625 0.015625 0  0.6328125 0.015625 0  0.640625 0.015625 0  0.6484375 0.015625 0  0.65625 0.015625 0  0.6640625 0.015625 0  0.671875 0.015625 0  0.6796875 0.015625 0  0.6875 0.015625 0  0.6953125 0.015625 0  0.703125 0.015625 0  0.7109375 0.015625 0  0.71875 0.015625 0  0.7265625 0.015625 0  0.734375 0.015625 0  0.7421875 0.015625 0  0.75 0.015625 0  0.7578125 0.015625 0  0.765625 0.015625 0  0.7734375 0.015625 0  0.78125 0.015625 0  0.7890625 0.015625 0  0.796875 0.015625 0  0.8046875 0.015625 0  0.8125 0.015625 0  0.8203125 0.015625 0  0.828125 0.015625 0  0.8359375 0.015625 0  0.84375 0.015625 0  0.8515625 0.015625 0  0.859375 0.015625 0  0.8671875 0.015625 0  0.875 0.015625 0  0.8828125 0.015625 0  0.890625 0.015625 0  0.8984375 0.015625 0  0.90625 0.015625 0  0.9140625 0.015625 0  0.921875 0.015625 0  0.9296875 0.015625 0  0.9375 0.015625 0  0.9453125 0.015625 0  0.953125 0.015625 0  0.9609375 0.015625 0  0.96875 0.015625 0  0.9765625 0.015625 0  0.984375 0.015625 0  0.9921875 0.015625 0  1 0.015625 0  0 0.0234375 0  0.0078125 0.0234375 0  0.015625 0.0234375 0  0.0234375 0.0234375 0  0.03125 0.0234375 0  0.0390625 0.0234375 0  0.046875 0.0234375 0  0.0546875 0.0234375 0  0.0625 0.0234375 0  0.0703125 0.0234375 0  0.078125 0.0234375 0  0.0859375 0.0234375 0  0.09375 0.0234375 0  0.1015625 0.0234375 0  0.109375 0.0234375 0  0.1171875 0.0234375 0  0.125 0.0234375 0  0.1328125 0.0234375 0  0.140625 0.0234375 0  0.1484375 0.0234375 0  0.15625 0.0234375 0  0.1640625 0.0234375 0  0.171875 0.0234375 0  0.1796875 0.0234375 0  0.1875 0.0234375 0  0.1953125 0.0234375 0  0.203125 0.0234375 0  0.2109375 0.0234375 0  0.21875 0.0234375 0  0.2265625 0.0234375 0  0.234375 0.0234375 0  0.2421875 0.0234375 0  0.25 0.0234375 0  0.2578125 0.0234375 0  0.265625 0.0234375 0  0.2734375 0.0234375 0  0.28125 0.0234375 0  0.2890625 0.0234375 0  0.296875 0.0234375 0  0.3046875 0.0234375 0  0.3125 0.0234375 0  0.3203125 0.0234375 0  0.328125 0.0234375 0  0.3359375 0.0234375 0  0.34375 0.0234375 0  0.3515625 0.0234375 0  0.359375 0.0234375 0  0.3671875 0.0234375 0  0.375 0.0234375 0  0.3828125 0.0234375 0  0.390625 0.0234375 0  0.3984375 0.0234375 0  0.40625 0.0234375 0  0.4140625 0.0234375 0  0.421875 0.0234375 0  0.4296875 0.0234375 0  0.4375 0.0234375 0  0.4453125 0.0234375 0  0.453125 0.0234375 0  0.4609375 0.0234375 0  0.46875 0.0234375 0  0.4765625 0.0234375 0  0.484375 0.0234375 0  0.4921875 0.0234375 0  0.5 0.0234375 0  0.5078125 0.0234375 0  0.515625 0.0234375 0  0.5234375 0.0234375 0  0.53125 0.0234375 0  0.5390625 0.0234375 0  0.546875 0.0234375 0  0.5546875 0.0234375 0  0.5625 0.0234375 0  0.5703125 0.0234375 0  0.578125 0.0234375 0  0.5859375 0.0234375 0  0.59375 0.0234375 0  0.6015625 0.0234375 0  0.609375 0.0234375 0  0.6171875 0.0234375 0  0.625 0.0234375 0  0.6328125 0.0234375 0  0.640625 0.0234375 0  0.6484375 0.0234375 0  0.65625 0.0234375 0  0.6640625 0.0234375 0  0.671875 0.0234375 0  0.6796875 0.0234375 0  0.6875 0.0234375 0  0.6953125 0.0234375 0  0.703125 0.0234375 0  0.7109375 0.0234375 0  0.71875 0.0234375 0  0.7265625 0.0234375 0  0.734375 0.0234375 0  0.7421875 0.0234375 0  0.75 0.0234375 0  0.7578125 0.0234375 0  0.765625 0.0234375 0  0.7734375 0.0234375 0  0.78125 0.0234375 0  0.7890625 0.0234375 0  0.796875 0.0234375 0  0.8046875 0.0234375 0  0.8125 0.0234375 0  0.8203125 0.0234375 0  0.828125 0.0234375 0  0.8359375 0.0234375 0  0.84375 0.0234375 0  0.8515625 0.0234375 0  0.859375 0.0234375 0  0.8671
[...]
<PointData  Scalars="u_sol"> 
<DataArray  type="Float64"  Name="u_sol"  format="ascii">1.0528514909799569e-06  -2.2031401439591972e-06  -1.2759977481578570e-05  -2.2057190027572110e-05  -2.7693429191086598e-05  -2.8892840812850199e-05  -2.5440473880103822e-05  -1.7559863282330728e-05  -5.9263959844430571e-06  8.3786597596436444e-06  2.4025464721988289e-05  3.9657432622724249e-05  5.4116062114622421e-05  6.6612978709109462e-05  7.6803798165682639e-05  8.4768465077647277e-05  9.0927605761704936e-05  9.5934119384331000e-05  1.0056080713166717e-04  1.0561297863639045e-04  1.1186871345717635e-04  1.2004524233849731e-04  1.3079003240193109e-04  1.4466822741394681e-04  1.6213676403594921e-04  1.8356907803557753e-04  2.0933397660246309e-04  2.3978557190290146e-04  2.7520697037920077e-04  3.1606126893869778e-04  3.6340492100341286e-04  4.1865951707437262e-04  4.8304769584111515e-04  5.5763542514293183e-04  6.4452959419161271e-04  7.4639438222359744e-04  8.6629627676449556e-04  1.0050239549998050e-03  1.1639324342603448e-03  1.3433413261181436e-03  1.5452050914100829e-03  1.7707253324535492e-03  2.0185293297064165e-03  2.2874107346195507e-03  2.5756224204935472e-03  2.8802293310913555e-03  3.1946173967880996e-03  3.5057400332115228e-03  3.7930436775556182e-03  4.0295000886732407e-03  4.1846609677647648e-03  4.2286225681981817e-03  4.1357280783595905e-03  3.8872612952099289e-03  3.4729023105938878e-03  2.8910739738908847e-03  2.1484716750489650e-03  1.2591011753914144e-03  2.4308459953511884e-04  -8.7455385615637640e-04  -2.0650733505597884e-03  -3.2971469679647296e-03  -4.5372680823451339e-03  -5.7541270564481122e-03  -6.9058902834926474e-03  -7.9191557695068443e-03  -8.7460545583525826e-03  -9.3488940998134300e-03  -9.6869565243609072e-03  -9.7280941631588003e-03  -9.4471805651648449e-03  -8.8281782199095653e-03  -7.8673525034657389e-03  -6.5756724668611134e-03  -4.9810833230287573e-03  -3.1298591758752796e-03  -1.0864875769351513e-03  1.0683065600802608e-03  3.2416855452425597e-03  5.3349086842331226e-03  7.2509348718905941e-03  8.9026551921634594e-03  1.0220594247061975e-02  1.1158888238532949e-02  1.1698111592687700e-02  1.1845501500771745e-02  1.1631705746568792e-02  1.1105291307943844e-02  1.0326290657281755e-02  9.3590847878021917e-03  8.2610855026239698e-03  7.0944951575220277e-03  5.9555308621803589e-03  4.8674602323037688e-03  3.8011589936851001e-03  2.7790974715341957e-03  1.8413597025650921e-03  1.0130287162378674e-03  3.2006492219049530e-04  -2.1355222689008657e-04  -5.7765870839262428e-04  -7.8166133925540947e-04  -8.5419030517284837e-04  -8.3462742850953613e-04  -7.6128823953138902e-04  -6.6362435449110002e-04  -5.6059641938075941e-04  -4.6279174476698300e-04  -3.7574049002453576e-04  -3.0245891774433303e-04  -2.4279945804032022e-04  -1.9484155310182447e-04  -1.5718222868728955e-04  -1.2831683628266238e-04  -1.0662751370434211e-04  -9.0614151104815790e-05  -7.8799718793371085e-05  -6.9789899642849372e-05  -6.2312061826896449e-05  -5.5269821760124407e-05  -4.7804262388795910e-05  -3.9358674133603098e-05  -2.9742160236296732e-05  -1.9190641725507559e-05  -8.4006024691642846e-06  1.2817332453748844e-06  7.9392668457723817e-06  7.1399368207997094e-06  -7.9248414161364551e-07  6.0379265504885214e-06  -3.2562101016505379e-05  -9.0215641172089437e-05  -1.0719184712519574e-04  -4.9214447360987556e-05  1.0159584720602336e-04  3.4946578123391917e-04  6.8758086712655429e-04  1.1000997736655153e-03  1.5647647803232593e-03  2.0560891042170127e-03  2.5487821450126081e-03  3.0208622329845622e-03  3.4559657047392839e-03  3.8445910732684508e-03  4.1842401482277631e-03  4.4786323721391725e-03  4.7362982527975233e-03  4.9688991962765390e-03  5.1895416585091749e-03  5.4112713083718207e-03  5.6458243413364086e-03  5.9026316518485224e-03  6.1880926288449302e-03  6.5051171870441115e-03  6.8528505134162277e-03  7.2266397250935902e-03  7.6185227059291389e-03  8.0180904532302089e-03  8.4129238834945892e-03  8.7885354825935607e-03  9.1287416401894684e-03  9.4156859600458345e-03  9.6279940334622859e-03  9.7367999950665664e-03  9.7046850287847725e-03  9.4852691428247426e-03  9.0263127730707236e-03  8.2656475009486620e-03  7.1313867829677861e-03  5.5418659857569257e-03  3.4104791929793748e-03  6.4795774454263686e-04  -2.8385976129860243e-03  -7.1403253215544214e-03  -1.2335207192024454e-02  -1.8475645521135117e-02  -2.5577772353879979e-02  -3.3614565730447570e-02  -4.2513900564697234e-02  -5.2161183558744828e-02  -6.2405655371684889e-02  -7.3069092683624312e-02  -8.3955490579808889e-02  -9.4860443385382895e-02  -1.0557926854554393e-01  -1.1591332257955736e-01  -1.2567434702342492e-01  -1.3468697338855096e-01  -1.4278973781826027e-01  -1.4983500136833869e-01  -1.5568821756637582e-01  -1.6022746083645353e-01  -1.6333992710364312e-01  -1.6492763536187069e-01  -1.6491688541924085e-01  -1.6323222461394463e-01  -1.5982917023619786e-01  -1.5468359684099556e-01  -1.4778734037252533e-01  -1.3915964515056334e-01  -1.2885039658038058e-01  -1.1694546241135188e-01  -1.0357134389802075e-01  -8.8898577422418537e-02  -7.3143343713143655e-02  -5.6566359062378509e-02  -3.9468452940583508e-02  -2.2182452157340566e-02  -5.0614283623219535e-03  1.1536193345154429e-02  2.7263464001812603e-02  4.1802266070774044e-02  5.4879475891080276e-02  6.6280390024954380e-02  7.5856720941146691e-02  8.3530263312734637e-02  8.9289645309369295e-02  9.3182607038424167e-02  9.5300462365188618e-02  9.5763926262951410e-02  9.4716435241945771e-02  9.2275610970411717e-02  8.8576387530585887e-02  8.3768458225921286e-02  7.7949304817532553e-02  7.1208151505887732e-02  6.3681002367441522e-02  5.5560682426223452e-02  4.7110469622591786e-02  3.8663576310858920e-02  3.0589841629579305e-02  2.3237705470887795e-02  1.6870072082918609e-02  1.1621008661840038e-02  7.4912699432985791e-03  4.3795025045582567e-03  2.1271273168895657e-03  5.5815460918088070e-04  -4.9252000989045389e-04  -1.1666899904809918e-03  -1.5787523593328132e-03  -1.8147026303246682e-03  -1.9363356936378108e-03  -1.9853040868910883e-03  -1.9867179227886895e-03  -1.9532318529469801e-03  -1.8888258232647151e-03  -1.7923853656284104e-03  -1.6609058443616878e-03  -1.4922356351807073e-03  -1.2873161469555913e-03  -1.0518582534797397e-03  -7.9741703773874802e-04  -5.4173914593800448e-04  -3.0850541479046677e-04  -1.2519508473864349e-04  -1.9876797190881820e-05  4.5000762890810053e-06  5.8498713080385741e-06  -3.1630410045991519e-05  -6.5785058202029521e-05  -2.1786030212065920e-05  1.4441191243495514e-04  4.5716022927419725e-04  9.2036050871041771e-04  1.5209426425953209e-03  2.2323030330649220e-03  3.0188522476391625e-03  3.8410621729798471e-03  4.6604899520217768e-03  5.4441041564876743e-03  6.1673986986719009e-03  6.8159780328149473e-03  7.3856483896257343e-03  7.8812659196715925e-03  8.3147235522998061e-03  8.7024717224448659e-03  9.0629541367482254e-03  9.4142015197393372e-03  9.7717457481967702e-03  1.0146946012157879e-02  1.0545626307344862e-02  1.0967003951485354e-02  1.1403205200185968e-02  1.1839325219862999e-02  1.2253333493301821e-02  1.2616003290444764e-02  1.2892119792898239e-02  1.3041570886572264e-02  1.3016890289112473e-02  1.2759239379953593e-02  1.2197092375140207e-02  1.1247444834308439e-02  9.8111737948349906e-03  7.7696099141222191e-03  4.9846906637197536e-03  1.3081818329652196e-03  -3.4151834820580445e-03  -9.3460928548463121e-03  -1.6637891950503206e-02  -2.5414564459614760e-02  -3.5747423773803508e-02  -4.7633804302782086e-02  -6.0986762849846693e-02  -7.5633646424016390e-02  -9.1325490634210027e-02  -1.0775545682620735e-01  -1.2458211698955665e-01  -1.4145403440669729e-01  -1.5803185035657125e-01  -1.7400531046969062e-01  -1.8910419702608072e-01  -2.0310342900092096e-01  -2.1582338946567395e-01  -2.2712684769172833e-01  -2.3691380866644776e-01  -2.4511540242678681e-01  -2.5168761477845347e-01  -2.5660538672896938e-01  -2.5985735196517490e-01  -2.6144106080405144e-01  -2.6136030291173712e-01  -2.5962422764967558e-01  -2.5625454611403264e-01  -2.5128206945035997e-01  -2.4470302147171008e-01  -2.3652144423414545e-01  -2.2675385102847892e-01  -2.1542506500882513e-01  -2.0257629417824996e-01  -1.8826909347009682e-01  -1.7259127847396386e-01  -1.5566203857389602e-01  -1.3763600115774621e-01  -1.1870541969398578e-01  -9.9099529314814805e-02  -7.9080442546085511e-02  -5.8935285861179049e-02  -3.8964895363144417e-02  -1.9470035337832571e-02  -7.3700737879810923e-04  1.6975450816486479e-02  3.3446611365310443e-02  4.8499755672840282e-02  6.2003893321642765e-02  7.3872031044259628e-02  8.4054252956318895e-02  9.2533962534670916e-02  9.9325370178153280e-02  1.0442761559389208e-01  1.0783329986377829e-01  1.0953640561052573e-01  1.0951052553234104e-01  1.0774200041654053e-01  1.0421393407090540e-01  9.8897673345051187e-02  9.1810376518597803e-02  8.3074153593269626e-02  7.2966001446871015e-02  6.1947002266647976e-02  5.0636802986092050e-02  3.9720864072702908e-02  2.9814294855576989e-02  2.1339501668317783e-02  1.4470413838074745e-02  9.1596830484443042e-03  5.2173068074471817e-03  2.3910921786845811e-03  4.2577534672907122e-04  -9.0319934514749645e-04  -1.7783200995584504e-03  -2.3377968832511940e-03  -2.6796958884585699e-03  -2.8693871814370951e-03  -2.9466967624287256e-03  -2.9332413905117849e-03  -2.8390975277125989e-03  -2.6686300755369113e-03  -2.4253792995365549e-03  -2.1159106430600270e-03  -1.7526155071169694e-03  -1.3553777976902069e-03  -9.5204609826159202e-04  -5.7726498949431295e-04  -2.6955508158159911e-04  -6.3824493355050556e-05  1.2488287008916490e-05  2.4930748735056839e-06  -1.3716655808442593e-05  8.7180058188679707e-06  1.4696882300746907e-04  4.4662204810964732e-04  9.3020193310503277e-04  1.5964999384239307e-03  2.4240197550082806e-03  3.3756346250776973e-03  4.4046871610221592e-03  5.4615156783505035e-03  6.4995894574499209e-03  7.4803927888972806e-03  8.3765394017498145e-03  9.1730275264079991e-03  9.8667701889749819e-03  1.0464768668080725e-02  1.0981419945624554e-02  1.1435401973847889e-02  1.1846497966467584e-02  1.2232653448662451e-02  1.2607354941815611e-02  1.2977280822641475e-02  1.3340509992121559e-02  1.3685308931325166e-02  1.3988748800922634e-02  1.4215464190770940e-02  1.4318310282004060e-02  1.4239312474750092e-02  1.3906946304533728e-02  1.3233288545203423e-02  1.2115572611649866e-02  1.0434536106061284e-02  8.0456467534994469e-03  4.7751949077639430e-03  4.2875400128554876e-04  -5.2032715619930127e-03  -1.2343140812577359e-02  -2.1209257903563265e-02  -3.1987615757233169e-02  -4.4792215220814974e-02  -5.9633722609549973e-02  -7.6396209575676194e-02  -9.4827344403997801e-02  -1.1455565585621058e-01  -1.3512551919699578e-01  -1.5604364678647359e-01  -1.7682487113606743e-01  -1.9702967472045921e-01  -2.1628970245397619e-01  -2.3432011554404880e-01  -2.5092054525778540e-01  -2.6596758752994060e-01  -2.7940214377175077e-01  -2.9121454395904262e-01  -3.0142968857791463e-01  -3.1009366559647694e-01  -3.1726260000149537e-01  -3.2299396121059154e-01  -3.2734021966419458e-01  -3.3034456203212559e-01  -3.3203835024601924e-01  -3.3244012899212200e-01  -3.3155588929229346e-01  -3.2937828353639442e-01  -3.2587371958353228e-01  -3.2098878958347521e-01  -3.1469534246596731e-01  -3.0695793493410484e-01  -2.9774006065744424e-01  -2.8701230897505270e-01  -2.7475548647835490e-01  -2.6096827684422075e-01  -2.4567406020126084e-01  -2.2892909284280269e-01  -2.1083024875616707e-01  -1.9152161764650938e-01  -1.7119849050057695e-01  -1.5010717924769754e-01  -1.2853932557574099e-01  -1.0681993642204587e-01  -8.5289558276324104e-02  -6.4282215508616139e-02  -4.4102327174610365e-02  -2.5004947564211111e-02  -7.1812930748602682e-03  9.2457385281547750e-03  2.4217980858453468e-02  3.7731086393184898e-02  4.9818744091579381e-02  6.0524932839950397e-02  6.9922469346737945e-02  7.8094493956984215e-02  8.5057358720207962e-02  9.0759906044679803e-02  9.5079838235896677e-02  9.7838866735500560e-02  9.8824130846725727e-02  9.7785276726168574e-02  9.4482053137760647e-02  8.8778471196084119e-02  8.0748670996293820e-02  7.0764753702750899e-02  5.9511462888392812e-02  4.7886804462317689e-02  3.6803869102219076e-02  2.6979322397976010e-02  1.8807833840083617e-02  1.2363717280895480e-02  7.4946137955027815e-03  3.9379195254724639e-03  1.4083756055544973e-03  -3.5207569384445398e-04  -1.5536464333435155e-03  -2.3552104733936623e-03  -2.8687909998335432e-03  -3.1688178469229202e-03  -3.3017156207858743e-03  -3.2950902635426375e-03  -3.1657774081584782e-03  -2.9264637218755418e-03  -2.5908938569098347e-03  -2.1776233733419191e-03  -1.7123204445861075e-03  -1.2285781073889386e-03  -7.6695080252088630e-04  -3.7293209640652830e-04  -9.2603610035957263e-05  1.8241855534195832e-05  -1.9799087053203932e-06  8.9041117274732524e-06  1.0533298765854637e-04  3.5920134201732968e-04  8.1255536889495393e-04  1.4812627591022584e-03  2.3543518674138410e-03  3.3980683548591574e-03  4.5620561824164614e-03  5.7872933027956555e-03  7.0143624433359414e-03  8.1906491792836343e-03  9.2755118603330168e-03  1.0242950264893025e-02  1.1081801071823707e-02  1.1793951323374257e-02  1.2391242617968673e-02  1.2891668027810986e-02  1.3315418492219702e-02  1.3681097214778067e-02  1.4002170504136711e-02  1.4283859360236552e-02  1.4520698549821753e-02  1.4693956588103171e-02  1.4768978671217674e-02  1.4694446880005946e-02  1.4402166388097383e-02  1.3803441724108117e-02  1.2787026534760311e-02  1.1222261055299125e-02  8.9554681541243915e-03  5.7998499526593231e-03  1.5358255903174835e-03  -4.0820764125414173e-03  -1.1324423696002523e-02  -2.0473485069341334e-02  -3.1791640225138633e-02  -4.5474648523787201e-02  -6.1607786700768698e-02  -8.0116869192012399e-02  -1.0074325177181527e-01  -1.2305150829832263e-01  -1.4647411926277323e-01  -1.7038076923854620e-01  -1.9414931820337772e-01  -2.1722749824227022e-01  -2.3917336670667927e-01  -2.5967316970978976e-01  -2.7853910618109295e-01  -2.9569252139211799e-01  -3.1113910505365955e-01  -3.2494184105666979e-01  -3.3719600832468111e-01  -3.4800874249968250e-01  -3.5748413174084359e-01  -3.6571367332156235e-01  -3.7277124188986854e-01  -3.7871143824220921e-01  -3.8357018809264948e-01  -3.8736661451788706e-01  -3.9010543586465041e-01  -3.9177934315838736e-01  -3.9237105066353317e-01  -3.9185423930005309e-01  -3.9019473595913123e-01  -3.8736430091824581e-01  -3.8334008509196066e-01  -3.7807010070324831e-01  -3.7149844263297171e-01  -3.6356359804738880e-01  -3.5419963778951230e-01  -3.4334080144868967e-01  -3.3092619515547361e-01  -3.1690745507264451e-01  -3.0125800564177135e-01  -2.8398455704873760e-01  -2.6513976027967018e-01  -2.4483483031009295e-01  -2.2324997906235433e-01  -2.0063996596339892e-01  -1.7733189545651473e-01  -1.5371295809218377e-01  -1.3020743214310873e-01  -1.0724458153008938e-01  -8.5221662824183447e-02  -6.4468922448562241e-02  -4.5222881586319742e-02  -2.7614014409422495e-02  -1.1668828780246625e-02  2.6732852101240315e-03  1.5541766751626176e-02  2.7080218025327171e-02  3.7423978278628367e-02  4.6756126809394033e-02  5.5247548190237167e-02  6.2964567263086482e-02  6.9849274424892943e-02  7.5715858936996838e-02  8.0259234364216489e-02  8.3067267828667538e-02  8.3667650636437926e-02  8.1643920185646535e-02  7.6796177792361406e-02  6.9296411317123274e-02  5.9755232410481258e-02  4.9132106474011998e-02  3.8497450844696433e-02  2.8754588555291366e-02  2.0458718900841086e-02  1.3796173015086928e-02  8.6801490895168573e-03  4.8801214895343326e-03  2.1261940010831449e-03  1.6800271140967013e-04  -1.1998948435523707e-03  -2.1327930987327711e-03  -2.7404929210241196e-03  -3.0967583962472132e-03  -3.2495169236029194e-03  -3.2302873569166972e-03  -3.0622014674946247e-03  -2.7663534711349384e-03  -2.3665515142363772e-03  -1.8924732192044426e-03  -1.3813330063109771e-03  -8.7797805914036238e-04  -4.3471808338646782e-04  -1.0961185554827176e-04  2.1607441550568598e-05  -6.8224250694552958e-06  3.3225857927063241e-05  2.1348346828636524e-04  6.0091582983966252e-04  1.2304701168878631e-03  2.1069348589152462e-03  3.2042259764440157e-03  4.4708191076661269e-03  5.8382468168572486e-03  7.2318089103377151e-03  8.5810847380128705e-03  9.8284469086983416e-03  1.0934239654255409e-02  1.1878252219854633e-02  1.2657973914434776e-02  1.3284626605552846e-02  1.3778028215981562e-02  1.4161189402269451e-02  1.4455088537594673e-02  1.4673901200416383e-02  1.4821031335937344e-02  1.4885461798820823e-02  1.4837867268361407e-02  1.4628404083595465e-02  1.4185361001015376e-02  1.3410579993777408e-02  1.2176669715938294e-02  1.0330220688092915e-02  7.6878726242711635e-03  4.0278917958612029e-03  -9.0673471664021242e-04  -7.4065492286900514e-03  -1.5794977193028015e-02  -2.6405790088009699e-02  -3.9538240708680124e-02  -5.5405268048148180e-02  -7.4065964326200925e-02  -9.5366529271768516e-02  -1.1891381611193431e-01  -1.4410684934325221e-01  -1.7021083034616932e-01  -1.9645608358438874e-01  -2.2213356179410365e-01  -2.4666500168087141e-01  -2.6964031645010350e-01  -2.9082111705169800e-01  -3.1011932908141598e-01  -3.2756095016477232e-01  -3.4324547509968717e-01  -3.5730892868946451e-01  -3.6989521945667558e-01  -3.8113740207799462e-01  -3.9114808094228543e-01  -4.0001686425829774e-01  -4.0781235251610071e-01  -4.1458636979229019e-01  -4.2037869377870246e-01  -4.2522117124590153e-01  -4.2914065811232827e-01  -4.3216063703906132e-01  -4.3430162370521241e-01  -4.3558062767077144e-01  -4.3600988868709939e-01  -4.3559574373735360e-01  -4.3433786772419292e-01  -4.3221907878420512e-01  -4.2920031460803371e-01  -4.2524073913013000e-01  -4.2028292192695804e-01  -4.1425467321427789e-01  -4.0706847550118430e-01  -3.9862183627509629e-01  -3.8879944606597450e-01  -3.7747732519082849e-01  -3.6453029114713598e-01  -3.4984309840731209e-01  -3.3332587678848802e-01  -3.1493344708568816e-01  -2.9468723498876270e-01  -2.7269705240985326e-01  -2.4917866324632212e-01  -2.2446208281333938e-01  -1.9898561180458685e-01  -1.7327227964256661e-01  -1.4788880639659413e-01  -1.2339152921073289e-01  -1.0026870407982760e-01  -7.8890347341925807e-02  -5.9476728257709666e-02  -4.2091294196032664e-02  -2.6658923624168586e-02  -1.2986638804067181e-02  -8.0988658160341734e-04  1.0114233787327551e-02  2.0013978582088334e-02  2.9143860639928233e-02  3.7702279405911941e-02  4.5754135842881773e-02  5.3206158253347999e-02  5.9787242681815574e-02  6.5049347741107419e-02  6.8407970345782568e-02  6.9266353075257997e-02  6.7213790651371216e-02  6.2236305005567157e-02  5.4826804546354017e-02  4.5906197853742968e-02  3.6566126991673734e-02  2.7761697188964648e-02  2.0109342314978209e-02  1.3856687162418247e-02  8.9759633109634477e-03  5.2886213373289090e-03  2.5672055269648085e-03  5.9513195941611875e-04  -8.0746685751385404e-04  -1.7774933471616330e-03  -2.4128744901539133e-03  -2.7809517903744727e-03  -2.9277789331788478e-03  -2.8866814722919693e-03  -2.6854807896475080e-03  -2.3521751113632630e-03  -1.9191265407267723e-03  -1.4258859611461128e-03  -9.2066218046840795e-04  -4.6180629798425949e-04  -1.1738258121925424e-04  2.3195201987514795e-05  -1.2020048671463629e-05  5.8997874680270695e-05  3.3355188280891502e-04  8.7539360174113037e-04  1.7098457630007351e-03  2.8254766786597390e-03  4.1742145374941775e-03  5.6793170795076198e-03  7.2478678865338089e-03  8.7854411685417428e-03  1.0209704431032866e-02  1.1460184929156642e-02  1.2502621175121400e-02  1.3328059493874368e-02  1.3948004402218132e-02  1.4387282987123386e-02  1.4676158480535634e-02  1.4842614709841719e-02  1.4905547328525809e-02  1.4868946680520837e-02  1.4716358009033283e-02  1.4406689661566762e-02  1.3871913317793857e-02  1.3012238192928330e-02  1.1691929508615348e-02  9.7414338996517913e-03  6.9543370916673843e-03  3.0805638321065431e-03  -2.1690578646689730e-03  -9.1224825150925653e-03  -1.8144987304891957e-02  -2.9612640296460869e-02  -4.3867735737875890e-02  -6.1154787368857273e-02  -8.1532971130842388e-02  -1.0479826284408747e-01  -1.3045986928586584e-01  -1.5778268206159221e-01  -1.8588983767635175e-0