<?xml version="1.0"?>
<VTKFile type="UnstructuredGrid"  version="0.1"  >
<UnstructuredGrid>
<Piece  NumberOfPoints="16641" NumberOfCells="16384">
<Points>
<DataArray  type="Float64"  NumberOfComponents="3"  format="ascii">0 0 0  0.0078125 0 0  0.015625 0 0  0.0234375 0 0  0.03125 0 0  0.0390625 0 0  0.046875 0 0  0.0546875 0 0  0.0625 0 0  0.0703125 0 0  0.078125 0 0  0.0859375 0 0  0.09375 0 0  0.1015625 0 0  0.109375 0 0  0.1171875 0 0  0.125 0 0  0.1328125 0 0  0.140625 0 0  0.1484375 0 0  0.15625 0 0  0.1640625 0 0  0.171875 0 0  0.1796875 0 0  0.1875 0 0  0.1953125 0 0  0.203125 0 0  0.2109375 0 0  0.21875 0 0  0.2265625 0 0  0.234375 0 0  0.2421875 0 0  0.25 0 0  0.2578125 0 0  0.265625 0 0  0.2734375 0 0  0.28125 0 0  0.2890625 0 0  0.296875 0 0  0.3046875 0 0  0.3125 0 0  0.3203125 0 0  0.328125 0 0  0.3359375 0 0  0.34375 0 0  0.3515625 0 0  0.359375 0 0  0.3671875 0 0  0.375 0 0  0.3828125 0 0  0.390625 0 0  0.3984375 0 0  0.40625 0 0  0.4140625 0 0  0.421875 0 0  0.4296875 0 0  0.4375 0 0  0.4453125 0 0  0.453125 0 0  0.4609375 0 0  0.46875 0 0  0.4765625 0 0  0.484375 0 0  0.4921875 0 0  0.5 0 0  0.5078125 0 0  0.515625 0 0  0.5234375 0 0  0.53125 0 0  0.5390625 0 0  0.546875 0 0  0.5546875 0 0  0.5625 0 0  0.5703125 0 0  0.578125 0 0  0.5859375 0 0  0.59375 0 0  0.6015625 0 0  0.609375 0 0  0.6171875 0 0  0.625 0 0  0.6328125 0 0  0.640625 0 0  0.6484375 0 0  0.65625 0 0  0.6640625 0 0  0.671875 0 0  0.6796875 0 0  0.6875 0 0  0.6953125 0 0  0.703125 0 0  0.7109375 0 0  0.71875 0 0  0.7265625 0 0  0.734375 0 0  0.7421875 0 0  0.75 0 0  0.7578125 0 0  0.765625 0 0  0.7734375 0 0  0.78125 0 0  0.7890625 0 0  0.796875 0 0  0.8046875 0 0  0.8125 0 0  0.8203125 0 0  0.828125 0 0  0.8359375 0 0  0.84375 0 0  0.8515625 0 0  0.859375 0 0  0.8671875 0 0  0.875 0 0  0.8828125 0 0  0.890625 0 0  0.8984375 0 0  0.90625 0 0  0.9140625 0 0  0.921875 0 0  0.9296875 0 0  0.9375 0 0  0.9453125 0 0  0.953125 0 0  0.9609375 0 0  0.96875 0 0  0.9765625 0 0  0.984375 0 0  0.9921875 0 0  1 0 0  0 0.0078125 0  0.0078125 0.0078125 0  0.015625 0.0078125 0  0.0234375 0.0078125 0  0.03125 0.0078125 0  0.0390625 0.0078125 0  0.046875 0.0078125 0  0.0546875 0.0078125 0  0.0625 0.0078125 0  0.0703125 0.0078125 0  0.078125 0.0078125 0  0.0859375 0.0078125 0  0.09375 0.0078125 0  0.1015625 0.0078125 0  0.109375 0.0078125 0  0.1171875 0.0078125 0  0.125 0.0078125 0  0.1328125 0.0078125 0  0.140625 0.0078125 0  0.1484375 0.0078125 0  0.15625 0.0078125 0  0.1640625 0.0078125 0  0.171875 0.0078125 0  0.1796875 0.0078125 0  0.1875 0.0078125 0  0.1953125 0.0078125 0  0.203125 0.0078125 0  0.2109375 0.0078125 0  0.21875 0.0078125 0  0.2265625 0.0078125 0  0.234375 0.0078125 0  0.2421875 0.0078125 0  0.25 0.0078125 0  0.2578125 0.0078125 0  0.265625 0.0078125 0  0.2734375 0.0078125 0  0.28125 0.0078125 0  0.2890625 0.0078125 0  0.296875 0.0078125 0  0.3046875 0.0078125 0  0.3125 0.0078125 0  0.3203125 0.0078125 0  0.328125 0.0078125 0  0.3359375 0.0078125 0  0.34375 0.0078125 0  0.3515625 0.0078125 0  0.359375 0.0078125 0  0.3671875 0.0078125 0  0.375 0.0078125 0  0.3828125 0.0078125 0  0.390625 0.0078125 0  0.3984375 0.0078125 0  0.40625 0.0078125 0  0.4140625 0.0078125 0  0.421875 0.0078125 0  0.4296875 0.0078125 0  0.4375 0.0078125 0  0.4453125 0.0078125 0  0.453125 0.0078125 0  0.4609375 0.0078125 0  0.46875 0.0078125 0  0.4765625 0.0078125 0  0.484375 0.0078125 0  0.4921875 0.0078125 0  0.5 0.0078125 0  0.5078125 0.0078125 0  0.515625 0.0078125 0  0.5234375 0.0078125 0  0.53125 0.0078125 0  0.5390625 0.0078125 0  0.546875 0.0078125 0  0.5546875 0.0078125 0  0.5625 0.0078125 0  0.5703125 0.0078125 0  0.578125 0.0078125 0  0.5859375 0.0078125 0  0.59375 0.0078125 0  0.6015625 0.0078125 0  0.609375 0.0078125 0  0.6171875 0.0078125 0  0.625 0.0078125 0  0.6328125 0.0078125 0  0.640625 0.0078125 0  0.6484375 0.0078125 0  0.65625 0.0078125 0  0.6640625 0.0078125 0  0.671875 0.0078125 0  0.6796875 0.0078125 0  0.6875 0.0078125 0  0.6953125 0.0078125 0  0.703125 0.0078125 0  0.7109375 0.0078125 0  0.71875 0.0078125 0  0.7265625 0.0078125 0  0.734375 0.0078125 0  0.7421875 0.0078125 0  0.75 0.0078125 0  0.7578125 0.0078125 0  0.765625 0.0078125 0  0.7734375 0.0078125 0  0.78125 0.0078125 0  0.7890625 0.0078125 0  0.796875 0.0078125 0  0.8046875 0.0078125 0  0.8125 0.0078125 0  0.8203125 0.0078125 0  0.828125 0.0078125 0  0.8359375 0.0078125 0  0.84375 0.0078125 0  0.8515625 0.0078125 0  0.859375 0.0078125 0  0.8671875 0.0078125 0  0.875 0.0078125 0  0.8828125 0.0078125 0  0.890625 0.0078125 0  0.8984375 0.0078125 0  0.90625 0.0078125 0  0.9140625 0.0078125 0  0.921875 0.0078125 0  0.9296875 0.0078125 0  0.9375 0.0078125 0  0.9453125 0.0078125 0  0.953125 0.0078125 0  0.9609375 0.0078125 0  0.96875 0.0078125 0  0.9765625 0.0078125 0  0.984375 0.0078125 0  0.9921875 0.0078125 0  1 0.0078125 0  0 0.015625 0  0.0078125 0.015625 0  0.015625 0.015625 0  0.0234375 0.015625 0  0.03125 0.015625 0  0.0390625 0.015625 0  0.046875 0.015625 0  0.0546875 0.015625 0  0.0625 0.015625 0  0.0703125 0.015625 0  0.078125 0.015625 0  0.0859375 0.015625 0  0.09375 0.015625 0  0.1015625 0.015625 0  0.109375 0.015625 0  0.1171875 0.015625 0  0.125 0.015625 0  0.1328125 0.015625 0  0.140625 0.015625 0  0.1484375 0.015625 0  0.15625 0.015625 0  0.1640625 0.015625 0  0.171875 0.015625 0  0.1796875 0.015625 0  0.1875 0.015625 0  0.1953125 0.015625 0  0.203125 0.015625 0  0.2109375 0.015625 0  0.21875 0.015625 0  0.2265625 0.015625 0  0.234375 0.015625 0  0.2421875 0.015625 0  0.25 0.015625 0  0.2578125 0.015625 0  0.265625 0.015625 0  0.2734375 0.015625 0  0.28125 0.015625 0  0.2890625 0.015625 0  0.296875 0.015625 0  0.3046875 0.015625 0  0.3125 0.015625 0  0.3203125 0.015625 0  0.328125 0.015625 0  0.3359375 0.015625 0  0.34375 0.015625 0  0.3515625 0.015625 0  0.359375 0.015625 0  0.3671875 0.015625 0  0.375 0.015625 0  0.3828125 0.015625 0  0.390625 0.015625 0  0.3984375 0.015625 0  0.40625 0.015625 0  0.4140625 0.015625 0  0.421875 0.015625 0  0.4296875 0.015625 0  0.4375 0.015625 0  0.4453125 0.015625 0  0.453125 0.015625 0  0.4609375 0.015625 0  0.46875 0.015625 0  0.4765625 0.015625 0  0.484375 0.015625 0  0.4921875 0.015625 0  0.5 0.015625 0  0.5078125 0.015625 0  0.515625 0.015625 0  0.5234375 0.015625 0  0.53125 0.015625 0  0.5390625 0.015625 0  0.546875 0.015625 0  0.5546875 0.015625 0  0.5625 0.015625 0  0.5703125 0.015625 0  0.578125 0.015625 0  0.5859375 0.015625 0  0.59375 0.015625 0  0.6015625 0.015625 0  0.609375 0.015625 0  0.6171875 0.015625 0  0.625 0.015625 0  0.6328125 0.015625 0  0.640625 0.015625 0  0.6484375 0.015625 0  0.65625 0.015625 0  0.6640625 0.015625 0  0.671875 0.015625 0  0.6796875 0.015625 0  0.6875 0.015625 0  0.6953125 0.015625 0  0.703125 0.015625 0  0.7109375 0.015625 0  0.71875 0.015625 0  0.7265625 0.015625 0  0.734375 0.015625 0  0.7421875 0.015625 0  0.75 0.015625 0  0.7578125 0.015625 0  0.765625 0.015625 0  0.7734375 0.015625 0  0.78125 0.015625 0  0.7890625 0.015625 0  0.796875 0.015625 0  0.8046875 0.015625 0  0.8125 0.015625 0  0.8203125 0.015625 0  0.828125 0.015625 0  0.8359375 0.015625 0  0.84375 0.015625 0  0.8515625 0.015625 0  0.859375 0.015625 0  0.8671875 0.015625 0  0.875 0.015625 0  0.8828125 0.015625 0  0.890625 0.015625 0  0.8984375 0.015625 0  0.90625 0.015625 0  0.9140625 0.015625 0  0.921875 0.015625 0  0.9296875 0.015625 0  0.9375 0.015625 0  0.9453125 0.015625 0  0.953125 0.015625 0  0.9609375 0.015625 0  0.96875 0.015625 0  0.9765625 0.015625 0  0.984375 0.015625 0  0.9921875 0.015625 0  1 0.015625 0  0 0.0234375 0  0.0078125 0.0234375 0  0.015625 0.0234375 0  0.0234375 0.0234375 0  0.03125 0.0234375 0  0.0390625 0.0234375 0  0.046875 0.0234375 0  0.0546875 0.0234375 0  0.0625 0.0234375 0  0.0703125 0.0234375 0  0.078125 0.0234375 0  0.0859375 0.0234375 0  0.09375 0.0234375 0  0.1015625 0.0234375 0  0.109375 0.0234375 0  0.1171875 0.0234375 0  0.125 0.0234375 0  0.1328125 0.0234375 0  0.140625 0.0234375 0  0.1484375 0.0234375 0  0.15625 0.0234375 0  0.1640625 0.0234375 0  0.171875 0.0234375 0  0.1796875 0.0234375 0  0.1875 0.0234375 0  0.1953125 0.0234375 0  0.203125 0.0234375 0  0.2109375 0.0234375 0  0.21875 0.0234375 0  0.2265625 0.0234375 0  0.234375 0.0234375 0  0.2421875 0.0234375 0  0.25 0.0234375 0  0.2578125 0.0234375 0  0.265625 0.0234375 0  0.2734375 0.0234375 0  0.28125 0.0234375 0  0.2890625 0.0234375 0  0.296875 0.0234375 0  0.3046875 0.0234375 0  0.3125 0.0234375 0  0.3203125 0.0234375 0  0.328125 0.0234375 0  0.3359375 0.0234375 0  0.34375 0.0234375 0  0.3515625 0.0234375 0  0.359375 0.0234375 0  0.3671875 0.0234375 0  0.375 0.0234375 0  0.3828125 0.0234375 0  0.390625 0.0234375 0  0.3984375 0.0234375 0  0.40625 0.0234375 0  0.4140625 0.0234375 0  0.421875 0.0234375 0  0.4296875 0.0234375 0  0.4375 0.0234375 0  0.4453125 0.0234375 0  0.453125 0.0234375 0  0.4609375 0.0234375 0  0.46875 0.0234375 0  0.4765625 0.0234375 0  0.484375 0.0234375 0  0.4921875 0.0234375 0  0.5 0.0234375 0  0.5078125 0.0234375 0  0.515625 0.0234375 0  0.5234375 0.0234375 0  0.53125 0.0234375 0  0.5390625 0.0234375 0  0.546875 0.0234375 0  0.5546875 0.0234375 0  0.5625 0.0234375 0  0.5703125 0.0234375 0  0.578125 0.0234375 0  0.5859375 0.0234375 0  0.59375 0.0234375 0  0.6015625 0.0234375 0  0.609375 0.0234375 0  0.6171875 0.0234375 0  0.625 0.0234375 0  0.6328125 0.0234375 0  0.640625 0.0234375 0  0.6484375 0.0234375 0  0.65625 0.0234375 0  0.6640625 0.0234375 0  0.671875 0.0234375 0  0.6796875 0.0234375 0  0.6875 0.0234375 0  0.6953125 0.0234375 0  0.703125 0.0234375 0  0.7109375 0.0234375 0  0.71875 0.0234375 0  0.7265625 0.0234375 0  0.734375 0.0234375 0  0.7421875 0.0234375 0  0.75 0.0234375 0  0.7578125 0.0234375 0  0.765625 0.0234375 0  0.7734375 0.0234375 0  0.78125 0.0234375 0  0.7890625 0.0234375 0  0.796875 0.0234375 0  0.8046875 0.0234375 0  0.8125 0.0234375 0  0.8203125 0.0234375 0  0.828125 0.0234375 0  0.8359375 0.0234375 0  0.84375 0.0234375 0  0.8515625 0.0234375 0  0.859375 0.0234375 0  0.8671
[...]
<PointData  Scalars="v_sol"> 
<DataArray  type="Float64"  Name="v_sol"  format="ascii">-1.0395096805593936e-06  -5.9751166308846160e-06  -5.1042912605051201e-06  2.7405812785466232e-07  8.0536874623183888e-06  1.6807159544219490e-05  2.5454428086985786e-05  3.3066813221231889e-05  3.8931735894568824e-05  4.2584994154540507e-05  4.3878302183708655e-05  4.2972603547268290e-05  4.0290986511127056e-05  3.6425433318227028e-05  3.2031729501894112e-05  2.7730199481181984e-05  2.4033192878202547e-05  2.1304814730571316e-05  1.9750984393765218e-05  1.9431281118938807e-05  2.0282353544596187e-05  2.2142737682093218e-05  2.4776209724741674e-05  2.7896870906410955e-05  3.1188791992473238e-05  3.4324177355419127e-05  3.6998503535837579e-05  3.8980772207169224e-05  4.0108675235438902e-05  4.0256839121405385e-05  3.9325496572305662e-05  3.7256587942815551e-05  3.3864056139798302e-05  2.8748677056565248e-05  2.1251578995342709e-05  1.0780069002487957e-05  -3.4046914039900676e-06  -2.1991840751253861e-05  -4.6035164069804362e-05  -7.6420876240935499e-05  -1.1343650879119103e-04  -1.5794532216882050e-04  -2.1053490918331635e-04  -2.7205615788595177e-04  -3.4272966031094850e-04  -4.2152171138445455e-04  -5.0684933488101536e-04  -5.9608239439757282e-04  -6.8586541688480849e-04  -7.7232286541458937e-04  -8.5135680008255191e-04  -9.1902864645277262e-04  -9.7191620780901053e-04  -1.0073732344292883e-03  -1.0236433627656466e-03  -1.0198384527540295e-03  -9.9581509047722938e-04  -9.5200596268060246e-04  -8.8922375599238758e-04  -8.0854872746949412e-04  -7.1109430361536029e-04  -5.9821806503947898e-04  -4.7110373168506654e-04  -3.2988567555317235e-04  -1.8163004396645744e-04  -1.2683333506639574e-05  1.7173836302762004e-04  3.5427606269799843e-04  5.4074904353079809e-04  7.2639605553929715e-04  9.0780651991253267e-04  1.0810588317482842e-03  1.2417287019683065e-03  1.3853410159258626e-03  1.5072827973486892e-03  1.6031518232994891e-03  1.6689187994918613e-03  1.7012326444306003e-03  1.6976576330322735e-03  1.6569678677197262e-03  1.5793721146010545e-03  1.4666786812658624e-03  1.3224756617718533e-03  1.1520102681703817e-03  9.6203687184160194e-04  7.6020060766572009e-04  5.5483686579894573e-04  3.5312490647198088e-04  1.6325863983859820e-04  -1.5897251362048547e-05  -1.7596352940623384e-04  -3.0432414645066070e-04  -4.1736993859079933e-04  -5.2248540583640425e-04  -6.1308918202166362e-04  -6.9101781689088581e-04  -7.5562721426083882e-04  -8.0141286449076179e-04  -8.2224590125290313e-04  -8.1241417575376280e-04  -7.6900252691677212e-04  -6.9456755018651494e-04  -5.9747691086376180e-04  -4.8968189789149515e-04  -3.8331873579629667e-04  -2.8748581042502638e-04  -2.0678512763031123e-04  -1.4270846703661158e-04  -9.4434101544971119e-05  -5.9512903651793146e-05  -3.5216813594107791e-05  -1.9032638458360870e-05  -8.7339425875056024e-06  -2.4440684358825545e-06  1.3552600878359636e-06  3.8697400612670406e-06  5.9631815712486373e-06  8.1904031113148848e-06  1.0811060866270744e-05  1.3828966147642020e-05  1.7027390573317135e-05  2.0019656704020389e-05  2.2286723325601156e-05  2.3257430408717843e-05  2.2318820291867562e-05  1.8973010487430653e-05  1.2850243573383977e-05  4.5517157558462271e-06  -7.9769824149369916e-07  2.1224020450822701e-06  3.2551598749206676e-05  2.8444817085262630e-05  2.5400257365010725e-07  -3.9484423234848627e-05  -8.4256706436914664e-05  -1.2834219387504263e-04  -1.6717434676949847e-04  -1.9703819309885637e-04  -2.1557641711172264e-04  -2.2201353858877478e-04  -2.1719532990231271e-04  -2.0331436182043818e-04  -1.8343481803298717e-04  -1.6093324584835257e-04  -1.3898748129401129e-04  -1.2020559675777154e-04  -1.0642630993851154e-04  -9.8675662282343400e-05  -9.7235639759759681e-05  -1.0176719279041241e-04  -1.1144184815490939e-04  -1.2506109074626056e-04  -1.4116794275878389e-04  -1.5815034977717112e-04  -1.7436002446994119e-04  -1.8827715095195963e-04  -1.9869175708172842e-04  -2.0476276663909296e-04  -2.0598116969402434e-04  -2.0201071827427261e-04  -1.9244900405927757e-04  -1.7621810656977784e-04  -1.5142778284419421e-04  -1.1512398345910218e-04  -6.4262472226257395e-05  5.1055429417330345e-06  9.6714767701240384e-05  2.1535177180838805e-04  3.6535431794807062e-04  5.4864694340148179e-04  7.6911909100572419e-04  1.0298142629185157e-03  1.3331121956754680e-03  1.6785096755097546e-03  2.0605896972642240e-03  2.4713403436001872e-03  2.8995675042123520e-03  3.3314829563259683e-03  3.7511091035155406e-03  4.1410097534451320e-03  4.4836709941133077e-03  4.7630454470217751e-03  4.9658350218185704e-03  5.0822106907773244e-03  5.1059409546162201e-03  5.0340506833295258e-03  4.8662033054013955e-03  4.6039939970245261e-03  4.2503063203284674e-03  3.8088268251303759e-03  3.2837689984273884e-03  2.6797077919576179e-03  2.0019246789059410e-03  1.2456483560920207e-03  3.9456022842610910e-04  -5.2044738098445899e-04  -1.4710320574714472e-03  -2.4575078945684977e-03  -3.4605374487121907e-03  -4.4616282173600402e-03  -5.4377971376958255e-03  -6.3619255870944183e-03  -7.2039609777816548e-03  -7.9315003394724148e-03  -8.5118441229279519e-03  -8.9143052235565769e-03  -9.1131058125479333e-03  -9.0903783629090844e-03  -8.8388571564288615e-03  -8.3637050482709124e-03  -7.6831754847208064e-03  -6.8280011136251121e-03  -5.8389175010434254e-03  -4.7630072950332293e-03  -3.6494396087279920e-03  -2.5451498881478504e-03  -1.4896871985210147e-03  -5.1586405875062458e-04  3.6680008318139517e-04  1.1461875923055261e-03  1.7850498861981666e-03  2.3155033742287283e-03  2.7988402275927913e-03  3.2278269950824995e-03  3.5861064162915810e-03  3.8704038823261493e-03  4.0611134908928922e-03  4.1281125791542738e-03  4.0463425121134043e-03  3.8062492743242320e-03  3.4231212707621951e-03  2.9376296062053027e-03  2.4053281913092388e-03  1.8818331612766670e-03  1.4096235761914509e-03  1.0119508301120639e-03  6.9610507357279426e-04  4.5814357978769100e-04  2.8653574220968632e-04  1.6746768220272167e-04  8.8513784600730114e-05  3.8717194626038256e-05  8.6796546674180015e-06  -9.1982094558636598e-06  -2.0912426256230056e-05  -3.0793050720889316e-05  -4.1590909688407901e-05  -5.4586556068839882e-05  -6.9761462788333912e-05  -8.5996532212356211e-05  -1.0128638406331950e-04  -1.1300309867861725e-04  -1.1813464357715530e-04  -1.1369440393975419e-04  -9.6642358439474351e-05  -6.5732619237531735e-05  -2.0055068395332739e-05  7.1815271644827110e-06  1.2472402249213976e-05  9.2659169721360753e-05  5.7328207657106331e-05  -5.3461685622760242e-05  -2.0746634195096584e-04  -3.7904129210257335e-04  -5.4689603751150882e-04  -6.9327407434410381e-04  -8.0461643152626131e-04  -8.7262926703416863e-04  -8.9497621791971159e-04  -8.7510913093882348e-04  -8.2121374631126517e-04  -7.4451429229839235e-04  -6.5734769725679936e-04  -5.7139485004991959e-04  -4.9634472090912527e-04  -4.3912157352392637e-04  -4.0364367462741082e-04  -3.9097163830797320e-04  -3.9968410675802715e-04  -4.2633976847260995e-04  -4.6592591956782305e-04  -5.1226664556528866e-04  -5.5845777934418798e-04  -5.9736572666600903e-04  -6.2213317975999527e-04  -6.2663009693606127e-04  -6.0586238144724205e-04  -5.5576828736640833e-04  -4.7228387985940928e-04  -3.5000867529443302e-04  -1.8172726219324857e-04  4.3286978049388059e-05  3.3919719012743312e-04  7.2402834326722274e-04  1.2139618622681180e-03  1.8237780533504036e-03  2.5684755707807505e-03  3.4633260065942157e-03  4.5197129416157805e-03  5.7358323818010523e-03  7.1021669597698678e-03  8.5977074028269658e-03  1.0183784041640255e-02  1.1804664410786231e-02  1.3391562325971428e-02  1.4870952748898422e-02  1.6172310997932336e-02  1.7234927442256982e-02  1.8012356283380972e-02  1.8474416009442583e-02  1.8606998475456622e-02  1.8410182103287806e-02  1.7895313022885294e-02  1.7081673146195613e-02  1.5993246228939929e-02  1.4655929235872736e-02  1.3095378946326928e-02  1.1335548448630587e-02  9.3978926989944367e-03  7.3011082659927415e-03  5.0614679167753085e-03  2.6917674704263501e-03  2.0956691862541012e-04  -2.3511603787523322e-03  -4.9807209909023794e-03  -7.6676220745815924e-03  -1.0379594765175536e-02  -1.3088240887214060e-02  -1.5752545707328709e-02  -1.8324585176729601e-02  -2.0746991056055385e-02  -2.2954511880872209e-02  -2.4876240627010868e-02  -2.6439121884078872e-02  -2.7573130146134498e-02  -2.8217346806821166e-02  -2.8326563703982812e-02  -2.7877381718196818e-02  -2.6872714463042218e-02  -2.5343910377581710e-02  -2.3349308724619697e-02  -2.0970762155873894e-02  -1.8305503716556988e-02  -1.5458138767039673e-02  -1.2531348659504029e-02  -9.6180627997372436e-03  -6.7915467107462308e-03  -4.1089563565479444e-03  -1.6024159108842377e-03  7.5045289541888127e-04  2.9502057278198812e-03  4.9751427464256185e-03  6.8655031217772743e-03  8.6556877265139571e-03  1.0319777498843555e-02  1.1792596970803107e-02  1.2969175881947943e-02  1.3712258460202402e-02  1.3889950874264210e-02  1.3425307371669967e-02  1.2340853099463587e-02  1.0772561732688113e-02  8.9372060539460573e-03  7.0669837710279444e-03  5.3476481199189472e-03  3.8881506998327572e-03  2.7238072304983912e-03  1.8403359216405417e-03  1.1988960091572913e-03  7.5059363304430852e-04  4.4730282799890198e-04  2.4707994150705947e-04  1.1465135339051234e-04  2.2205127945219505e-05  -5.0715346777520122e-05  -1.1757360562064948e-04  -1.8547821380845427e-04  -2.5602098367372454e-04  -3.2621225410314514e-04  -3.8949804303837446e-04  -4.3684352990326712e-04  -4.5794771078123183e-04  -4.4255356269496174e-04  -3.8212287622901620e-04  -2.7328351357620341e-04  -1.2409311698420044e-04  8.3327574105264898e-06  2.2213972590824953e-05  1.2611839151221440e-04  2.5930178229388917e-05  -2.0779474816737072e-04  -5.1973081569835244e-04  -8.6157766660447559e-04  -1.1914847557122966e-03  -1.4747286784990825e-03  -1.6855636772605495e-03  -1.8091803100958018e-03  -1.8425427101680574e-03  -1.7936191594900008e-03  -1.6790757316947720e-03  -1.5209477321769171e-03  -1.3430102415726451e-03  -1.1675209519935474e-03  -1.0127924884670869e-03  -8.9175120925812979e-04  -8.1142598994445785e-04  -7.7317204287306353e-04  -7.7331692421973115e-04  -8.0397578566985812e-04  -8.5389000575531143e-04  -9.0925693895800184e-04  -9.5451238992626058e-04  -9.7317883905902625e-04  -9.4894307691067287e-04  -8.6648641986999920e-04  -7.1139391075855077e-04  -4.7018513284878929e-04  -1.2903790338733944e-04  3.2977675549388305e-04  9.3178527594111986e-04  1.7066011331135272e-03  2.6866940063901609e-03  3.9076754586877564e-03  5.4088374352336188e-03  7.2198800546029373e-03  9.3543463922810596e-03  1.1812216116244103e-02  1.4567878047083108e-02  1.7561544974323013e-02  2.0695111604558034e-02  2.3840160230634833e-02  2.6851128363508739e-02  2.9581428236925746e-02  3.1900289465872707e-02  3.3705050174587005e-02  3.4928159457681823e-02  3.5538311573536679e-02  3.5537084884829442e-02  3.4952530024300016e-02  3.3831444166988904e-02  3.2231672038154448e-02  3.0215355262151813e-02  2.7843609798265247e-02  2.5172761840949524e-02  2.2252043474482609e-02  1.9122518683637440e-02  1.5816972594391885e-02  1.2360481791435981e-02  8.7714893810651676e-03  5.0629571501083163e-03  1.2455884675230007e-03  -2.6737452223751074e-03  -6.6990554274934172e-03  -1.0814843132913884e-02  -1.4996097437201247e-02  -1.9219348016001354e-02  -2.3445311045086185e-02  -2.7624922171291970e-02  -3.1693325310486423e-02  -3.5571115771309829e-02  -3.9164020594119699e-02  -4.2365763975677699e-02  -4.5062783065874898e-02  -4.7141540224293683e-02  -4.8498082714401231e-02  -4.9048979273171395e-02  -4.8742271092998335e-02  -4.7566509772130373e-02  -4.5555910699987760e-02  -4.2790073950805502e-02  -3.9387730508237788e-02  -3.5495233996662788e-02  -3.1271288061514683e-02  -2.6872466826672999e-02  -2.2437412294051780e-02  -1.8078327768950700e-02  -1.3871652565716796e-02  -9.8585869876080517e-03  -6.0645894943274241e-03  -2.4435509073514527e-03  1.1048608915124141e-03  4.6143955298279075e-03  8.0927029569462829e-03  1.1563318189958229e-02  1.4984507609267820e-02  1.8212256226843943e-02  2.1006767852636190e-02  2.3055034537139713e-02  2.4041085984081716e-02  2.3753037217852449e-02  2.2185534947097157e-02  1.9578924348800431e-02  1.6357796824918842e-02  1.2993862809668893e-02  9.8695231489320089e-03  7.2103470149886967e-03  5.0927604450533171e-03  3.4902162141992837e-03  2.3260526576711037e-03  1.5075934663473034e-03  9.4341668606746064e-04  5.5432239968333970e-04  2.7643632501775476e-04  6.1862055597969315e-05  -1.2183509114231384e-04  -2.9323631453753523e-04  -4.5899738724541130e-04  -6.1603221916444676e-04  -7.5377532850883920e-04  -8.5654812470035199e-04  -9.0610535551281096e-04  -8.8442834573848877e-04  -7.7727086731344854e-04  -5.7924017428358959e-04  -3.0242705131384561e-04  2.7491866441859040e-06  3.0402312275266014e-05  1.1311046804856575e-04  -9.1033751824365290e-05  -4.8699836135071274e-04  -9.9336714626268793e-04  -1.5361683553339288e-03  -2.0498368902015754e-03  -2.4804419270556166e-03  -2.7893838573527516e-03  -2.9563448336910893e-03  -2.9799676805692932e-03  -2.8758859987656482e-03  -2.6724493133048013e-03  -2.4052043666627069e-03  -2.1112449519770904e-03  -1.8243283660312633e-03  -1.5713653550736158e-03  -1.3704491608292964e-03  -1.2302463895925548e-03  -1.1503718650393835e-03  -1.1223547258157104e-03  -1.1308657072198643e-03  -1.1549121154091260e-03  -1.1689563983493031e-03  -1.1442240379513559e-03  -1.0499464664486141e-03  -8.5430798713285528e-04  -5.2623256598869044e-04  -3.5959069536277404e-05  6.4891323749384955e-04  1.5652238393514884e-03  2.7532633369318437e-03  4.2611927321050975e-03  6.1509628842736407e-03  8.4835210409477356e-03  1.1305730789724732e-02  1.4646960369420729e-02  1.8505589250141806e-02  2.2829941636863239e-02  2.7506564058697888e-02  3.2363706409374582e-02  3.7184874164823155e-02  4.1735020415691326e-02  4.5790493953252999e-02  4.9164910372721568e-02  5.1725933331881434e-02  5.3401569243062101e-02  5.4177235022646875e-02  5.4086212139719612e-02  5.3196708005459017e-02  5.1598204101213553e-02  4.9389216791583444e-02  4.6667570531766268e-02  4.3523578958216028e-02  4.0035932044662909e-02  3.6269799397042959e-02  3.2276554440858057e-02  2.8094567489975100e-02  2.3750630156727372e-02  1.9261703354835409e-02  1.4636820266118985e-02  9.8790274830835006e-03  4.9875744951828312e-03  -4.1085747754997973e-05  -5.2103150633631820e-03  -1.0513075617465237e-02  -1.5942418347025915e-02  -2.1486791472130510e-02  -2.7121124174550641e-02  -3.2809438739655680e-02  -3.8497608950927811e-02  -4.4112642001097706e-02  -4.9559042610824569e-02  -5.4718690568480582e-02  -5.9451806809016912e-02  -6.3601485918658454e-02  -6.7001667680030616e-02  -6.9489137235056050e-02  -7.0918965615260038e-02  -7.1181970689121091e-02  -7.0221705998102804e-02  -6.8047686191587214e-02  -6.4741471376311061e-02  -6.0453057204035147e-02  -5.5387012662981690e-02  -4.9780123676306021e-02  -4.3874951610372984e-02  -3.7893439698942898e-02  -3.2017028772144136e-02  -2.6372831419953887e-02  -2.1028652239781172e-02  -1.5990009160401972e-02  -1.1228693530573970e-02  -6.6826920176350510e-03  -2.1994441587696433e-03  2.3850919738366240e-03  7.1507127699354600e-03  1.2122652052286333e-02  1.7240047013114150e-02  2.2283140548712031e-02  2.6858468427607918e-02  3.0438521349682123e-02  3.2477875734770519e-02  3.2594405215566932e-02  3.0742881270620304e-02  2.7278015931823562e-02  2.2848503517885102e-02  1.8172569458120406e-02  1.3824307063820731e-02  1.0133336246412458e-02  7.2049193139437206e-03  4.9951277858385733e-03  3.3869871063998739e-03  2.2433873900021780e-03  1.4334394012415052e-03  8.4650487260666974e-04  3.9747513869647927e-04  2.6600956122619530e-05  -3.0244505063208900e-04  -6.0597289931055244e-04  -8.8395702931802717e-04  -1.1238776328404291e-03  -1.3046217677587229e-03  -1.4005572647250795e-03  -1.3858907330185004e-03  -1.2396758974794553e-03  -9.5157692862426850e-04  -5.2887189736547911e-04  -5.2524119309686302e-06  3.7736897133483502e-05  4.5248084575361747e-05  -3.1062087409264657e-04  -9.1199303293939920e-04  -1.6489366670738657e-03  -2.4181626847907642e-03  -3.1272074459820750e-03  -3.7012386247981077e-03  -4.0892678478196111e-03  -4.2681713218373869e-03  -4.2426210109376737e-03  -4.0409095811263090e-03  -3.7077623477277857e-03  -3.2957518229015364e-03  -2.8570913500550878e-03  -2.4370912541262202e-03  -2.0698104345904409e-03  -1.7758718203122980e-03  -1.5620368015390961e-03  -1.4220036263346203e-03  -1.3378243883789044e-03  -1.2814833876202999e-03  -1.2165701322327355e-03  -1.0997383782244748e-03  -8.8188982806110716e-04  -5.1057718471403727e-04  6.8198655115271208e-05  9.1154734665711259e-04  2.0779057366254574e-03  3.6251472279694428e-03  5.6211032356993772e-03  8.1469361744537280e-03  1.1282672560698599e-02  1.5099288075890503e-02  1.9646770029175226e-02  2.4924167637529186e-02  3.0854161431008172e-02  3.7270443267556068e-02  4.3920870742412833e-02  5.0493562245186155e-02  5.6659022698634168e-02  6.2115224004622473e-02  6.6623842002854872e-02  7.0030604470264865e-02  7.2268818667284199e-02  7.3349399370990137e-02  7.3342607459334436e-02  7.2357063055886753e-02  7.0520109051629046e-02  6.7962099892825395e-02  6.4805562903255301e-02  6.1158950612380969e-02  5.7114052627856085e-02  5.2745877941689723e-02  4.8113940293610845e-02  4.3264131615358643e-02  3.8230677957923724e-02  3.3037923391649529e-02  2.7701864523982118e-02  2.2231459557722665e-02  1.6629774180154273e-02  1.0895059561795048e-02  5.0217011614942450e-03  -9.9822999743484782e-04  -7.1728273497072802e-03  -1.3511734789660050e-02  -2.0019591153897030e-02  -2.6693414055885781e-02  -3.3521132003497968e-02  -4.0475973861432001e-02  -4.7513619736597935e-02  -5.4566681450334123e-02  -6.1541192224205114e-02  -6.8312775532583067e-02  -7.4725355753829145e-02  -8.0592371151991860e-02  -8.5702403351772177e-02  -8.9829978707807290e-02  -9.2752254230279427e-02  -9.4271035699760627e-02  -9.4238191367173541e-02  -9.2580831516565779e-02  -8.9321279862783029e-02  -8.4586496446434165e-02  -7.8602744576453928e-02  -7.1674237452253237e-02  -6.4148319771758000e-02  -5.6373833517258734e-02  -4.8660760967525266e-02  -4.1249204987258627e-02  -3.4291597158896271e-02  -2.7848030428370925e-02  -2.1893535172954809e-02  -1.6330187540698180e-02  -1.1021138316168019e-02  -5.7795903837543627e-03  -3.6727122166199249e-04  5.4026296246265509e-03  1.1603955345222109e-02  1.8164058296618355e-02  2.4789877351074057e-02  3.0933429673962350e-02  3.5850102351586782e-02  3.8774431201106262e-02  3.9185277476353066e-02  3.7042754174347645e-02  3.2848355330856810e-02  2.7468954467723974e-02  2.1823089342605531e-02  1.6613441982477911e-02  1.2222123013623321e-02  8.7535278694994730e-03  6.1366196957567945e-03  4.2183340550870701e-03  2.8268811259939256e-03  1.8049131547208759e-03  1.0246945679766553e-03  3.9315456979809911e-04  -1.4969695049668394e-04  -6.3469611796340805e-04  -1.0687322909708047e-03  -1.4401779396165900e-03  -1.7243710246299146e-03  -1.8892089675382250e-03  -1.9009317203169849e-03  -1.7302173706626963e-03  -1.3581445334583976e-03  -7.8142454478158884e-04  -1.4415054790580664e-05  4.5088192441158399e-05  -8.2382003889394339e-05  -6.4737169161418855e-04  -1.5055162912611798e-03  -2.5135452467937389e-03  -3.5335430593193841e-03  -4.4420184624155805e-03  -5.1416956873301485e-03  -5.5710635318002057e-03  -5.7091759069863900e-03  -5.5737794734909323e-03  -5.2134379291885885e-03  -4.6956808637049364e-03  -4.0942848899425096e-03  -3.4781275051151985e-03  -2.9030333283121220e-03  -2.4069684048489805e-03  -2.0081548678009993e-03  -1.7053068031791403e-03  -1.4791027914687674e-03  -1.2943261678676739e-03  -1.1020563676219508e-03  -8.4145298895106277e-04  -4.4222011240353218e-04  1.7338205224882270e-04  1.0908976189237228e-03  2.3993563919365362e-03  4.1868008202491716e-03  6.5491395791644324e-03  9.5898354633866742e-03  1.3409521131826552e-02  1.8104158307278784e-02  2.3745925752779600e-02  3.0344057547845093e-02  3.7809797812179732e-02  4.5933460917277721e-02  5.4387421433512877e-02  6.2763443203378455e-02 