<?xml version="1.0"?>
<VTKFile type="UnstructuredGrid"  version="0.1"  >
<UnstructuredGrid>
<Piece  NumberOfPoints="81" NumberOfCells="64">
<Points>
<DataArray  type="Float64"  NumberOfComponents="3"  format="ascii">0 0 0  0.125 0 0  0.25 0 0  0.375 0 0  0.5 0 0  0.625 0 0  0.75 0 0  0.875 0 0  1 0 0  0 0.125 0  0.125 0.125 0  0.25 0.125 0  0.375 0.125 0  0.5 0.125 0  0.625 0.125 0  0.75 0.125 0  0.875 0.125 0  1 0.125 0  0 0.25 0  0.125 0.25 0  0.25 0.25 0  0.375 0.25 0  0.5 0.25 0  0.625 0.25 0  0.75 0.25 0  0.875 0.25 0  1 0.25 0  0 0.375 0  0.125 0.375 0  0.25 0.375 0  0.375 0.375 0  0.5 0.375 0  0.625 0.375 0  0.75 0.375 0  0.875 0.375 0  1 0.375 0  0 0.5 0  0.125 0.5 0  0.25 0.5 0  0.375 0.5 0  0.5 0.5 0  0.625 0.5 0  0.75 0.5 0  0.875 0.5 0  1 0.5 0  0 0.625 0  0.125 0.625 0  0.25 0.625 0  0.375 0.625 0  0.5 0.625 0  0.625 0.625 0  0.75 0.625 0  0.875 0.625 0  1 0.625 0  0 0.75 0  0.125 0.75 0  0.25 0.75 0  0.375 0.75 0  0.5 0.75 0  0.625 0.75 0  0.75 0.75 0  0.875 0.75 0  1 0.75 0  0 0.875 0  0.125 0.875 0  0.25 0.875 0  0.375 0.875 0  0.5 0.875 0  0.625 0.875 0  0.75 0.875 0  0.875 0.875 0  1 0.875 0  0 1 0  0.125 1 0  0.25 1 0  0.375 1 0  0.5 1 0  0.625 1 0  0.75 1 0  0.875 1 0  1 1 0  </DataArray>
</Points>
<Cells>
<DataArray  type="UInt32"  Name="connectivity"  format="ascii">0 1 10 9  1 2 11 10  2 3 12 11  3 4 13 12  4 5 14 13  5 6 15 14  6 7 16 15  7 8 17 16  9 10 19 18  10 11 20 19  11 12 21 20  12 13 22 21  13 14 23 22  14 15 24 23  15 16 25 24  16 17 26 25  18 19 28 27  19 20 29 28  20 21 30 29  21 22 31 30  22 23 32 31  23 24 33 32  24 25 34 33  25 26 35 34  27 28 37 36  28 29 38 37  29 30 39 38  30 31 40 39  31 32 41 40  32 33 42 41  33 34 43 42  34 35 44 43  36 37 46 45  37 38 47 46  38 39 48 47  39 40 49 48  40 41 50 49  41 42 51 50  42 43 52 51  43 44 53 52  45 46 55 54  46 47 56 55  47 48 57 56  48 49 58 57  49 50 59 58  50 51 60 59  51 52 61 60  52 53 62 61  54 55 64 63  55 56 65 64  56 57 66 65  57 58 67 66  58 59 68 67  59 60 69 68  60 61 70 69  61 62 71 70  63 64 73 72  64 65 74 73  65 66 75 74  66 67 76 75  67 68 77 76  68 69 78 77  69 70 79 78  70 71 80 79  </DataArray>
<DataArray  type="UInt32"  Name="offsets"  format="ascii">4 8 12 16 20 24 28 32 36 40 44 48 52 56 60 64 68 72 76 80 84 88 92 96 100 104 108 112 116 120 124 128 132 136 140 144 148 152 156 160 164 168 172 176 180 184 188 192 196 200 204 208 212 216 220 224 228 232 236 240 244 248 252 256 </DataArray>
<DataArray  type="UInt8"  Name="types"  format="ascii">9 9 9 9 9 9 9 9 9 9 9 9 9 9 9 9 9 9 9 9 9 9 9 9 9 9 9 9 9 9 9 9 9 9 9 9 9 9 9 9 9 9 9 9 9 9 9 9 9 9 9 9 9 9 9 9 9 9 9 9 9 9 9 9 </DataArray>
</Cells>
<PointData  Scalars="u_sol"> 
<DataArray  type="Float64"  Name="u_sol"  format="ascii">-2.4394548880923855e-19  0.0000000000000000e+00  -8.6736173798840374e-19  -1.7896717596503551e-18  -3.0220290120410264e-18  -3.2526065174565141e-18  8.1315162936412852e-19  -1.4026865606531217e-18  3.2526065174565133e-19  -4.0299992996479085e-04  1.8914870590415757e-03  7.4289683370775527e-03  1.3523053126757521e-02  1.7560718477894349e-02  1.7391260191561168e-02  1.2268794995221764e-02  3.8145593659876498e-03  -8.7324420365168212e-04  -4.6535111732102412e-04  2.1778420961358412e-03  8.4973719305560420e-03  1.5401648191302663e-02  1.9965052891385920e-02  1.9754807974430029e-02  1.3970535149450396e-02  4.3654057148742346e-03  -1.0011608726751139e-03  -2.9088728441698013e-04  1.3609571491307176e-03  5.3059593183430011e-03  9.6063883697003957e-03  1.2441620140813178e-02  1.2308573945075257e-02  8.7008987349634758e-03  2.7158185638156474e-03  -6.2259304920500200e-04  6.3376161412866212e-08  -2.5664443369240956e-07  -6.4142493936430491e-07  -7.4510459677603127e-07  -1.0016887156674354e-06  -1.4613501709624784e-06  -1.3503777118446627e-06  -4.4692310674704957e-07  1.0356197451157195e-07  2.9095822694191916e-04  -1.3612365298576266e-03  -5.3065783960380515e-03  -9.6069953059238801e-03  -1.2442515140298645e-02  -1.2310175100353713e-02  -8.7025436620060768e-03  -2.7163878251370301e-03  6.2272664804491438e-04  4.6530325286289851e-04  -2.1776387557715464e-03  -8.4967693441537866e-03  -1.5400825617992771e-02  -1.9964086584485390e-02  -1.9753857400110788e-02  -1.3970048999915784e-02  -4.3653530597260399e-03  1.0011569377337852e-03  4.0291347574307864e-04  -1.8911543744243337e-03  -7.4283104211643313e-03  -1.3522523659535183e-02  -1.7559788096651610e-02  -1.7389148260183573e-02  -1.2266285839611491e-02  -3.8135958364659199e-03  8.7301097776636681e-04  1.0299920638612288e-18  -1.7347234759768067e-18  4.9873299934333196e-18  -6.2427032633880106e-18  8.4072551800589472e-18  -8.3043592211029024e-18  3.0357660829594116e-18  8.6736173798840335e-19  -1.6263032587282554e-19  </DataArray> 
</PointData> 
</Piece>
</UnstructuredGrid>
</VTKFile>