<?xml version="1.0"?>
<VTKFile type="UnstructuredGrid"  version="0.1"  >
<UnstructuredGrid>
<Piece  NumberOfPoints="81" NumberOfCells="64">
<Points>
<DataArray  type="Float64"  NumberOfComponents="3"  format="ascii">0 0 0  0.125 0 0  0.25 0 0  0.375 0 0  0.5 0 0  0.625 0 0  0.75 0 0  0.875 0 0  1 0 0  0 0.125 0  0.125 0.125 0  0.25 0.125 0  0.375 0.125 0  0.5 0.125 0  0.625 0.125 0  0.75 0.125 0  0.875 0.125 0  1 0.125 0  0 0.25 0  0.125 0.25 0  0.25 0.25 0  0.375 0.25 0  0.5 0.25 0  0.625 0.25 0  0.75 0.25 0  0.875 0.25 0  1 0.25 0  0 0.375 0  0.125 0.375 0  0.25 0.375 0  0.375 0.375 0  0.5 0.375 0  0.625 0.375 0  0.75 0.375 0  0.875 0.375 0  1 0.375 0  0 0.5 0  0.125 0.5 0  0.25 0.5 0  0.375 0.5 0  0.5 0.5 0  0.625 0.5 0  0.75 0.5 0  0.875 0.5 0  1 0.5 0  0 0.625 0  0.125 0.625 0  0.25 0.625 0  0.375 0.625 0  0.5 0.625 0  0.625 0.625 0  0.75 0.625 0  0.875 0.625 0  1 0.625 0  0 0.75 0  0.125 0.75 0  0.25 0.75 0  0.375 0.75 0  0.5 0.75 0  0.625 0.75 0  0.75 0.75 0  0.875 0.75 0  1 0.75 0  0 0.875 0  0.125 0.875 0  0.25 0.875 0  0.375 0.875 0  0.5 0.875 0  0.625 0.875 0  0.75 0.875 0  0.875 0.875 0  1 0.875 0  0 1 0  0.125 1 0  0.25 1 0  0.375 1 0  0.5 1 0  0.625 1 0  0.75 1 0  0.875 1 0  1 1 0  </DataArray>
</Points>
<Cells>
<DataArray  type="UInt32"  Name="connectivity"  format="ascii">0 1 10 9  1 2 11 10  2 3 12 11  3 4 13 12  4 5 14 13  5 6 15 14  6 7 16 15  7 8 17 16  9 10 19 18  10 11 20 19  11 12 21 20  12 13 22 21  13 14 23 22  14 15 24 23  15 16 25 24  16 17 26 25  18 19 28 27  19 20 29 28  20 21 30 29  21 22 31 30  22 23 32 31  23 24 33 32  24 25 34 33  25 26 35 34  27 28 37 36  28 29 38 37  29 30 39 38  30 31 40 39  31 32 41 40  32 33 42 41  33 34 43 42  34 35 44 43  36 37 46 45  37 38 47 46  38 39 48 47  39 40 49 48  40 41 50 49  41 42 51 50  42 43 52 51  43 44 53 52  45 46 55 54  46 47 56 55  47 48 57 56  48 49 58 57  49 50 59 58  50 51 60 59  51 52 61 60  52 53 62 61  54 55 64 63  55 56 65 64  56 57 66 65  57 58 67 66  58 59 68 67  59 60 69 68  60 61 70 69  61 62 71 70  63 64 73 72  64 65 74 73  65 66 75 74  66 67 76 75  67 68 77 76  68 69 78 77  69 70 79 78  70 71 80 79  </DataArray>
<DataArray  type="UInt32"  Name="offsets"  format="ascii">4 8 12 16 20 24 28 32 36 40 44 48 52 56 60 64 68 72 76 80 84 88 92 96 100 104 108 112 116 120 124 128 132 136 140 144 148 152 156 160 164 168 172 176 180 184 188 192 196 200 204 208 212 216 220 224 228 232 236 240 244 248 252 256 </DataArray>
<DataArray  type="UInt8"  Name="types"  format="ascii">9 9 9 9 9 9 9 9 9 9 9 9 9 9 9 9 9 9 9 9 9 9 9 9 9 9 9 9 9 9 9 9 9 9 9 9 9 9 9 9 9 9 9 9 9 9 9 9 9 9 9 9 9 9 9 9 9 9 9 9 9 9 9 9 </DataArray>
</Cells>
<PointData  Scalars="v_sol"> 
<DataArray  type="Float64"  Name="v_sol"  format="ascii">-3.2526065174565133e-19  4.3117702107734141e-04  6.2460465765765789e-04  5.4739372043441771e-04  2.2163762227016983e-04  -2.6797293756000208e-04  -7.3400406695046569e-04  -8.2283601701976902e-04  -3.2526065174565133e-19  8.6736173798840374e-19  -1.9478412410565363e-03  -2.8152795698135808e-03  -2.4661523471712745e-03  -9.9748707994605610e-04  1.2080723588116795e-03  3.3049448843645579e-03  3.7137429928271785e-03  -6.5052130349130266e-19  -1.9515639104739080e-18  -6.9127983062314451e-03  -9.9340402919451034e-03  -8.6913940597915934e-03  -3.5057721164652982e-03  4.2647502058536513e-03  1.1631455041300613e-02  1.3147799519995684e-02  -4.3368086899420177e-19  -1.8664392246826903e-18  -1.1112032026310881e-02  -1.5909415121698280e-02  -1.3901901973163691e-02  -5.5956057409216496e-03  6.8299791060445003e-03  1.8600644672141290e-02  2.1088331066250091e-02  1.4311727576870030e-18  -6.1978919035969326e-18  -1.2725044241397299e-02  -1.8205805252133032e-02  -1.5900645748806376e-02  -6.3960583830249169e-03  7.8147589054250784e-03  2.1281934423073832e-02  2.4130860273447394e-02  -4.3368086899420170e-18  6.3715469941831927e-19  -1.1111161013456503e-02  -1.5909156610313967e-02  -1.3901738474882191e-02  -5.5948728575368912e-03  6.8306590600560602e-03  1.8599589223954483e-02  2.1086680655115344e-02  1.0618987698658462e-17  1.2932151884528384e-18  -6.9118823941091119e-03  -9.9339523014062535e-03  -8.6913124968813812e-03  -3.5047758835116674e-03  4.2659607474908262e-03  1.1630416715695781e-02  1.3145545606209317e-02  -3.3610267347050630e-18  -6.3743939056499371e-20  -1.9475472046746785e-03  -2.8153324458841359e-03  -2.4661630336090474e-03  -9.9705686354965395e-04  1.2087040084365179e-03  3.3046546198647747e-03  3.7127409178855184e-03  1.7618285302889443e-18  2.9815559743351367e-19  4.3110989110341864e-04  6.2462353824063082e-04  5.4739923388236753e-04  2.2153006080025136e-04  -2.6813771301119436e-04  -7.3394149291499343e-04  -8.2258351820927063e-04  -1.5178830414797058e-18  </DataArray> 
</PointData> 
</Piece>
</UnstructuredGrid>
</VTKFile>