<?xml version="1.0"?>
<VTKFile type="UnstructuredGrid"  version="0.1"  >
<UnstructuredGrid>
<Piece  NumberOfPoints="1089" NumberOfCells="1024">
<Points>
<DataArray  type="Float64"  NumberOfComponents="3"  format="ascii">0 0 0  0.03125 0 0  0.0625 0 0  0.09375 0 0  0.125 0 0  0.15625 0 0  0.1875 0 0  0.21875 0 0  0.25 0 0  0.28125 0 0  0.3125 0 0  0.34375 0 0  0.375 0 0  0.40625 0 0  0.4375 0 0  0.46875 0 0  0.5 0 0  0.53125 0 0  0.5625 0 0  0.59375 0 0  0.625 0 0  0.65625 0 0  0.6875 0 0  0.71875 0 0  0.75 0 0  0.78125 0 0  0.8125 0 0  0.84375 0 0  0.875 0 0  0.90625 0 0  0.9375 0 0  0.96875 0 0  1 0 0  0 0.03125 0  0.03125 0.03125 0  0.0625 0.03125 0  0.09375 0.03125 0  0.125 0.03125 0  0.15625 0.03125 0  0.1875 0.03125 0  0.21875 0.03125 0  0.25 0.03125 0  0.28125 0.03125 0  0.3125 0.03125 0  0.34375 0.03125 0  0.375 0.03125 0  0.40625 0.03125 0  0.4375 0.03125 0  0.46875 0.03125 0  0.5 0.03125 0  0.53125 0.03125 0  0.5625 0.03125 0  0.59375 0.03125 0  0.625 0.03125 0  0.65625 0.03125 0  0.6875 0.03125 0  0.71875 0.03125 0  0.75 0.03125 0  0.78125 0.03125 0  0.8125 0.03125 0  0.84375 0.03125 0  0.875 0.03125 0  0.90625 0.03125 0  0.9375 0.03125 0  0.96875 0.03125 0  1 0.03125 0  0 0.0625 0  0.03125 0.0625 0  0.0625 0.0625 0  0.09375 0.0625 0  0.125 0.0625 0  0.15625 0.0625 0  0.1875 0.0625 0  0.21875 0.0625 0  0.25 0.0625 0  0.28125 0.0625 0  0.3125 0.0625 0  0.34375 0.0625 0  0.375 0.0625 0  0.40625 0.0625 0  0.4375 0.0625 0  0.46875 0.0625 0  0.5 0.0625 0  0.53125 0.0625 0  0.5625 0.0625 0  0.59375 0.0625 0  0.625 0.0625 0  0.65625 0.0625 0  0.6875 0.0625 0  0.71875 0.0625 0  0.75 0.0625 0  0.78125 0.0625 0  0.8125 0.0625 0  0.84375 0.0625 0  0.875 0.0625 0  0.90625 0.0625 0  0.9375 0.0625 0  0.96875 0.0625 0  1 0.0625 0  0 0.09375 0  0.03125 0.09375 0  0.0625 0.09375 0  0.09375 0.09375 0  0.125 0.09375 0  0.15625 0.09375 0  0.1875 0.09375 0  0.21875 0.09375 0  0.25 0.09375 0  0.28125 0.09375 0  0.3125 0.09375 0  0.34375 0.09375 0  0.375 0.09375 0  0.40625 0.09375 0  0.4375 0.09375 0  0.46875 0.09375 0  0.5 0.09375 0  0.53125 0.09375 0  0.5625 0.09375 0  0.59375 0.09375 0  0.625 0.09375 0  0.65625 0.09375 0  0.6875 0.09375 0  0.71875 0.09375 0  0.75 0.09375 0  0.78125 0.09375 0  0.8125 0.09375 0  0.84375 0.09375 0  0.875 0.09375 0  0.90625 0.09375 0  0.9375 0.09375 0  0.96875 0.09375 0  1 0.09375 0  0 0.125 0  0.03125 0.125 0  0.0625 0.125 0  0.09375 0.125 0  0.125 0.125 0  0.15625 0.125 0  0.1875 0.125 0  0.21875 0.125 0  0.25 0.125 0  0.28125 0.125 0  0.3125 0.125 0  0.34375 0.125 0  0.375 0.125 0  0.40625 0.125 0  0.4375 0.125 0  0.46875 0.125 0  0.5 0.125 0  0.53125 0.125 0  0.5625 0.125 0  0.59375 0.125 0  0.625 0.125 0  0.65625 0.125 0  0.6875 0.125 0  0.71875 0.125 0  0.75 0.125 0  0.78125 0.125 0  0.8125 0.125 0  0.84375 0.125 0  0.875 0.125 0  0.90625 0.125 0  0.9375 0.125 0  0.96875 0.125 0  1 0.125 0  0 0.15625 0  0.03125 0.15625 0  0.0625 0.15625 0  0.09375 0.15625 0  0.125 0.15625 0  0.15625 0.15625 0  0.1875 0.15625 0  0.21875 0.15625 0  0.25 0.15625 0  0.28125 0.15625 0  0.3125 0.15625 0  0.34375 0.15625 0  0.375 0.15625 0  0.40625 0.15625 0  0.4375 0.15625 0  0.46875 0.15625 0  0.5 0.15625 0  0.53125 0.15625 0  0.5625 0.15625 0  0.59375 0.15625 0  0.625 0.15625 0  0.65625 0.15625 0  0.6875 0.15625 0  0.71875 0.15625 0  0.75 0.15625 0  0.78125 0.15625 0  0.8125 0.15625 0  0.84375 0.15625 0  0.875 0.15625 0  0.90625 0.15625 0  0.9375 0.15625 0  0.96875 0.15625 0  1 0.15625 0  0 0.1875 0  0.03125 0.1875 0  0.0625 0.1875 0  0.09375 0.1875 0  0.125 0.1875 0  0.15625 0.1875 0  0.1875 0.1875 0  0.21875 0.1875 0  0.25 0.1875 0  0.28125 0.1875 0  0.3125 0.1875 0  0.34375 0.1875 0  0.375 0.1875 0  0.40625 0.1875 0  0.4375 0.1875 0  0.46875 0.1875 0  0.5 0.1875 0  0.53125 0.1875 0  0.5625 0.1875 0  0.59375 0.1875 0  0.625 0.1875 0  0.65625 0.1875 0  0.6875 0.1875 0  0.71875 0.1875 0  0.75 0.1875 0  0.78125 0.1875 0  0.8125 0.1875 0  0.84375 0.1875 0  0.875 0.1875 0  0.90625 0.1875 0  0.9375 0.1875 0  0.96875 0.1875 0  1 0.1875 0  0 0.21875 0  0.03125 0.21875 0  0.0625 0.21875 0  0.09375 0.21875 0  0.125 0.21875 0  0.15625 0.21875 0  0.1875 0.21875 0  0.21875 0.21875 0  0.25 0.21875 0  0.28125 0.21875 0  0.3125 0.21875 0  0.34375 0.21875 0  0.375 0.21875 0  0.40625 0.21875 0  0.4375 0.21875 0  0.46875 0.21875 0  0.5 0.21875 0  0.53125 0.21875 0  0.5625 0.21875 0  0.59375 0.21875 0  0.625 0.21875 0  0.65625 0.21875 0  0.6875 0.21875 0  0.71875 0.21875 0  0.75 0.21875 0  0.78125 0.21875 0  0.8125 0.21875 0  0.84375 0.21875 0  0.875 0.21875 0  0.90625 0.21875 0  0.9375 0.21875 0  0.96875 0.21875 0  1 0.21875 0  0 0.25 0  0.03125 0.25 0  0.0625 0.25 0  0.09375 0.25 0  0.125 0.25 0  0.15625 0.25 0  0.1875 0.25 0  0.21875 0.25 0  0.25 0.25 0  0.28125 0.25 0  0.3125 0.25 0  0.34375 0.25 0  0.375 0.25 0  0.40625 0.25 0  0.4375 0.25 0  0.46875 0.25 0  0.5 0.25 0  0.53125 0.25 0  0.5625 0.25 0  0.59375 0.25 0  0.625 0.25 0  0.65625 0.25 0  0.6875 0.25 0  0.71875 0.25 0  0.75 0.25 0  0.78125 0.25 0  0.8125 0.25 0  0.84375 0.25 0  0.875 0.25 0  0.90625 0.25 0  0.9375 0.25 0  0.96875 0.25 0  1 0.25 0  0 0.28125 0  0.03125 0.28125 0  0.0625 0.28125 0  0.09375 0.28125 0  0.125 0.28125 0  0.15625 0.28125 0  0.1875 0.28125 0  0.21875 0.28125 0  0.25 0.28125 0  0.28125 0.28125 0  0.3125 0.28125 0  0.34375 0.28125 0  0.375 0.28125 0  0.40625 0.28125 0  0.4375 0.28125 0  0.46875 0.28125 0  0.5 0.28125 0  0.53125 0.28125 0  0.5625 0.28125 0  0.59375 0.28125 0  0.625 0.28125 0  0.65625 0.28125 0  0.6875 0.28125 0  0.71875 0.28125 0  0.75 0.28125 0  0.78125 0.28125 0  0.8125 0.28125 0  0.84375 0.28125 0  0.875 0.28125 0  0.90625 0.28125 0  0.9375 0.28125 0  0.96875 0.28125 0  1 0.28125 0  0 0.3125 0  0.03125 0.3125 0  0.0625 0.3125 0  0.09375 0.3125 0  0.125 0.3125 0  0.15625 0.3125 0  0.1875 0.3125 0  0.21875 0.3125 0  0.25 0.3125 0  0.28125 0.3125 0  0.3125 0.3125 0  0.34375 0.3125 0  0.375 0.3125 0  0.40625 0.3125 0  0.4375 0.3125 0  0.46875 0.3125 0  0.5 0.3125 0  0.53125 0.3125 0  0.5625 0.3125 0  0.59375 0.3125 0  0.625 0.3125 0  0.65625 0.3125 0  0.6875 0.3125 0  0.71875 0.3125 0  0.75 0.3125 0  0.78125 0.3125 0  0.8125 0.3125 0  0.84375 0.3125 0  0.875 0.3125 0  0.90625 0.3125 0  0.9375 0.3125 0  0.96875 0.3125 0  1 0.3125 0  0 0.34375 0  0.03125 0.34375 0  0.0625 0.34375 0  0.09375 0.34375 0  0.125 0.34375 0  0.15625 0.34375 0  0.1875 0.34375 0  0.21875 0.34375 0  0.25 0.34375 0  0.28125 0.34375 0  0.3125 0.34375 0  0.34375 0.34375 0  0.375 0.34375 0  0.40625 0.34375 0  0.4375 0.34375 0  0.46875 0.34375 0  0.5 0.34375 0  0.53125 0.34375 0  0.5625 0.34375 0  0.59375 0.34375 0  0.625 0.34375 0  0.65625 0.34375 0  0.6875 0.34375 0  0.71875 0.34375 0  0.75 0.34375 0  0.78125 0.34375 0  0.8125 0.34375 0  0.84375 0.34375 0  0.875 0.34375 0  0.90625 0.34375 0  0.9375 0.34375 0  0.96875 0.34375 0  1 0.34375 0  0 0.375 0  0.03125 0.375 0  0.0625 0.375 0  0.09375 0.375 0  0.125 0.375 0  0.15625 0.375 0  0.1875 0.375 0  0.21875 0.375 0  0.25 0.375 0  0.28125 0.375 0  0.3125 0.375 0  0.34375 0.375 0  0.375 0.375 0  0.40625 0.375 0  0.4375 0.375 0  0.46875 0.375 0  0.5 0.375 0  0.53125 0.375 0  0.5625 0.375 0  0.59375 0.375 0  0.625 0.375 0  0.65625 0.375 0  0.6875 0.375 0  0.71875 0.375 0  0.75 0.375 0  0.78125 0.375 0  0.8125 0.375 0  0.84375 0.375 0  0.875 0.375 0  0.90625 0.375 0  0.9375 0.375 0  0.96875 0.375 0  1 0.375 0  0 0.40625 0  0.03125 0.40625 0  0.0625 0.40625 0  0.09375 0.40625 0  0.125 0.40625 0  0.15625 0.40625 0  0.1875 0.40625 0  0.21875 0.40625 0  0.25 0.40625 0  0.28125 0.40625 0  0.3125 0.40625 0  0.34375 0.40625 0  0.375 0.40625 0  0.40625 0.40625 0  0.4375 0.40625 0  0.46875 0.40625 0  0.5 0.40625 0  0.53125 0.40625 0  0.5625 0.40625 0  0.59375 0.40625 0  0.625 0.40625 0  0.65625 0.40625 0  0.6875 0.40625 0  0.71875 0.40625 0  0.75 0.40625 0  0.78125 0.40625 0  0.8125 0.40625 0  0.84375 0.40625 0  0.875 0.40625 0  0.90625 0.40625 0  0.9375 0.40625 0  0.96875 0.40625 0  1 0.40625 0  0 0.4375 0  0.03125 0.4375 0  0.0625 0.4375 0  0.09375 0.4375 0  0.125 0.4375 0  0.15625 0.4375 0  0.1875 0.4375 0  0.21875 0.4375 0  0.25 0.4375 0  0.28125 0.4375 0  0.3125 0.4375 0  0.34375 0.4375 0  0.375 0.4375 0  0.40625 0.4375 0  0.4375 0.4375 0  0.46875 0.4375 0  0.5 0.4375 0  0.53125 0.4375 0  0.5625 0.4375 0  0.59375 0.4375 0  0.625 0.4375 0  0.65625 0.4375 0  0.6875 0.4375 0  0.71875 0.4375 0  0.75 0.4375 0  0.78125 0.4375 0  0.8125 0.4375 0  0.84375 0.4375 0  0.875 0.4375 0  0.90625 0.4375 0  0.9375 0.4375 0  0.96875 0.4375 0  1 0.4375 0  0 0.46875 0  0.03125 0.46875 0  0.0625 0.46875 0  0.09375 0.46875 0  0.125 0.46875 0  0.15625 0.46875 0  0.1875 0.46875 0  0.21875 0.46875 0  0.25 0.46875 0  0.28125 0.46875 0  0.3125 0.46875 0  0.34375 0.46875 0  0.375 0.46875 0  0.40625 0.46875 0  0.4375 0.46875 0  0.46875 0.46875 0  0.5 0.46875 0  0.53125 0.46875 0  0.5625 0.46875 0  0.59375 0.46875 0  0.625 0.46875 0  0.65625 0.46875 0  0.6875 0.46875 0  0.71875 0.46875 0  0.75 0.46875 0  0.78125 0.46875 0  0.8125 0.46875 0  0.84375 0.46875 0  0.875 0.46875 0  0.90625 0.46875 0  0.9375 0.46875 0  0.96875 0.46875 0  1 0.46875 0  0 0.5 0  0.03125 0.5 0  0.0625 0.5 0  0.09375 0.5 0  0.125 0.5 0  0.15625 0.5 0  0.1875 0.5 0  0.21875 0.5 0  0.25 0.5 0  0.28125 0.5 0  0.3125 0.5 0  0.34375 0.5 0  0.375 0.5 0  0.40625 0.5 0  0.4375 0.5 0  0.46875 0.5 0  0.5 0.5 0  0.53125 0.5 0  0.5625 0.5 0  0.59375 0.5 0  0.625 0.5 0  0.65625 0.5 0  0.6875 0.5 0  0.71875 0.5 0  0.75 0.5 0  0.78125 0.5 0  0.8125 0.5 0  0.84375 0.5 0  0.875 0.5 0  0.90625 0.5 0  0.9375 0.5 0  0.96875 0.5 0  1 0.5 0  0 0.53125 0  0.03125 0.53125 0  0.0625 0.53125 0  0.09375 0.53125 0  0.125 0.53125 0  0.15625 0.53125 0  0.1875 0.53125 0  0.21875 0.53125 0  0.25 0.53125 0  0.28125 0.53125 0  0.3125 0.53125 0  0.34375 0.53125 0  0.375 0.53125 0  0.40625 0.53125 0  0.4375 0.53125 0  0.46875 0.53125 0  0.5 0.53125 0  0.53125 0.53125 0  0.5625 0.53125 0  0.59375 0.53125 0  0.625 0.53125 0  0.65625 0.53125 0  0.6875 0.53125 0  0.71875 0.53125 0  0.75 0.53125 0  0.78125 0.531
[...]
<PointData  Scalars="u_sol"> 
<DataArray  type="Float64"  Name="u_sol"  format="ascii">-1.7875486297310933e-05  -2.4911344620400286e-04  4.8577504526141802e-04  1.6077590512407430e-03  1.0829607675427284e-03  3.7939246348002303e-03  1.6601997366649187e-03  -1.7680804920708535e-02  -2.6095035878569813e-02  3.9805732501519499e-04  2.7513121223757257e-02  3.4106936718655570e-02  2.5326973299734507e-02  5.8355150609911985e-03  -1.6795527771655380e-02  -3.7045338069555928e-02  -4.9603926953360446e-02  -5.0097969484506531e-02  -3.5942631500019327e-02  -7.2642376680359388e-03  2.8437209017241019e-02  5.9282681447613318e-02  7.6281111895082354e-02  7.3691419344572406e-02  5.9482374963299875e-02  3.5039590484392445e-02  9.4104803133643819e-03  -3.8639558302440186e-03  -4.0746307947944769e-03  -1.7017781430017673e-03  -1.3494033944211048e-03  -1.9393310151703111e-04  4.5915973548435183e-05  -2.3114964868599890e-04  1.5130008144830466e-03  8.1756159677199604e-03  1.3792089088334476e-02  1.9138042346681844e-02  2.0071211023927275e-02  3.2547596113795429e-02  4.3635581023469747e-02  3.1000656004658036e-02  -9.3176190304893654e-03  -7.9584934820431011e-02  -1.6101490702484725e-01  -2.4081988033797463e-01  -3.0551848897434741e-01  -3.5009767261310315e-01  -3.7310829571603299e-01  -3.7531036872984141e-01  -3.5698643040063699e-01  -3.1738246121172214e-01  -2.5611956237352079e-01  -1.7466386894016445e-01  -8.3251413073476541e-02  -1.5656479045948965e-03  5.4137823652374316e-02  8.0996989435777683e-02  9.5533414761358945e-02  8.8354123786447983e-02  5.4890099590818447e-02  2.0835087665099099e-02  4.0960898392635734e-03  -1.8243984508153953e-04  -1.1048499541487778e-03  1.6997928548149246e-04  -1.0304074703660886e-03  4.3879378100134389e-03  1.4698819953865528e-02  1.9145008730719951e-02  1.0243990627719449e-02  9.6738460230773003e-03  -1.1638678737908088e-02  -5.1154742745439755e-02  -1.1551995122356229e-01  -2.2169682144962286e-01  -3.1898836220364812e-01  -3.8924109208857038e-01  -4.3046478088975393e-01  -4.5286707577204555e-01  -4.6386339369446644e-01  -4.6845025512235594e-01  -4.6836998633834337e-01  -4.6417287584999428e-01  -4.5470157318959975e-01  -4.3558500450425131e-01  -3.9826606576160262e-01  -3.3049939652079602e-01  -2.3136445625751673e-01  -1.2361185674953581e-01  -4.6481546409228289e-02  -9.8744160439682392e-03  2.3805450045373280e-02  4.5898395278207126e-02  3.7369561455222695e-02  1.7287015636405671e-02  3.9878989222639381e-03  6.1688391657633808e-04  -8.6153755345234602e-05  -1.9477072438543117e-03  8.3883805935207334e-03  1.8706459348800358e-02  1.9440375481776219e-02  1.5931122054749496e-02  -1.7599757941556597e-02  -7.2618795914008757e-02  -1.7088894736378721e-01  -2.9118716533180272e-01  -3.7258162703994036e-01  -4.1339636832234983e-01  -4.2546355475848080e-01  -4.2575222017545350e-01  -4.2181354886526978e-01  -4.1789563845404037e-01  -4.1427835255790940e-01  -4.1157972808992155e-01  -4.1060148598898605e-01  -4.1315640630278022e-01  -4.2175782907897991e-01  -4.3486951730883738e-01  -4.4157890528345495e-01  -4.1264673972113408e-01  -3.2150051370241467e-01  -1.8193173969750093e-01  -7.0782329607645453e-02  -3.1694009596147057e-02  -5.6879876103460838e-03  1.7267543316290965e-02  1.8296814069250138e-02  1.1515707245920104e-02  2.6933942716526322e-03  -5.9334826488881330e-04  -1.7753798041848534e-03  1.0995578460885520e-02  1.3626523668301834e-02  -6.2207550186215779e-03  -3.6528390369596042e-02  -9.0022140360087780e-02  -2.0939889554449240e-01  -3.2945431647559270e-01  -3.8358141610533308e-01  -3.9275372659900537e-01  -3.8262263921786527e-01  -3.7364241141825222e-01  -3.6979348684200308e-01  -3.7092393079090802e-01  -3.7329316550749808e-01  -3.7513105098269389e-01  -3.7496413559837438e-01  -3.7228694937053602e-01  -3.6767012468486621e-01  -3.6270178342307280e-01  -3.6374426706602209e-01  -3.7893447308487460e-01  -4.1150572382299327e-01  -4.3091755945762084e-01  -3.7886251064517990e-01  -2.3105391748027521e-01  -8.0465879548941271e-02  -2.2130665875834610e-02  -2.3069947478804842e-03  1.0859042526041784e-02  7.2988988822464042e-03  3.9260106884620588e-03  -5.8825854960079947e-04  -1.1704408072162643e-03  9.1564093404399981e-03  -3.4777504972248311e-03  -2.9202472926860616e-02  -8.4033696375798037e-02  -2.0948168721369234e-01  -3.1490792845733356e-01  -3.4182771178959698e-01  -3.3833807833162916e-01  -3.3077124879538927e-01  -3.3310205847165475e-01  -3.4049344185362118e-01  -3.4791150789702141e-01  -3.5201496082109074e-01  -3.5376931421477659e-01  -3.5429438619335762e-01  -3.5463985063508341e-01  -3.5567814312749907e-01  -3.5719774615977379e-01  -3.5853625862847127e-01  -3.5604504843874601e-01  -3.4865672140600507e-01  -3.4310320179602155e-01  -3.6221162440136678e-01  -4.0142325176761534e-01  -3.8969965534481960e-01  -2.5013030184794421e-01  -7.4967561526213158e-02  -6.6259420416842638e-03  5.5230091683514037e-03  1.1554136518571921e-02  2.0461592661619558e-03  -4.8218684968940066e-04  1.4872373819095506e-03  -1.9140092096564496e-04  -2.3384545253905563e-02  -7.2293275405885773e-02  -1.8806073476554266e-01  -2.8460955865322318e-01  -3.0992591088490828e-01  -3.1589219158772341e-01  -3.1373779181303840e-01  -3.1595868932037929e-01  -3.1857850727409048e-01  -3.1772949906340947e-01  -3.1566558248331167e-01  -3.1465293307159231e-01  -3.1522773725157288e-01  -3.1602775303417124e-01  -3.1661834927004306e-01  -3.1641969005662879e-01  -3.1628056678047806e-01  -3.1755728831123825e-01  -3.2274298061486401e-01  -3.3086527768831203e-01  -3.3483938910935923e-01  -3.2638836387357234e-01  -3.2715695039703346e-01  -3.6301825162301765e-01  -3.7250670541255743e-01  -2.3616553836245940e-01  -5.4011669569635816e-02  3.3187721755149674e-03  2.0951115402816373e-03  5.5448371115325006e-03  -1.0178007571620294e-03  2.2517432361619356e-03  -9.3266094568186693e-03  -4.8547927579448459e-02  -1.4277336308082247e-01  -2.3770536715107871e-01  -2.7504809133567815e-01  -2.8170613720775600e-01  -2.6889273541577313e-01  -2.6651305961991245e-01  -2.7198916261814449e-01  -2.7421780133847262e-01  -2.7890651686174106e-01  -2.8427429430022366e-01  -2.8948718766510739e-01  -2.9241855865784444e-01  -2.9459961774833576e-01  -2.9617093952035883e-01  -2.9781478342100748e-01  -2.9929232135417200e-01  -2.9945630054041189e-01  -2.9787900834318254e-01  -2.9568082544954927e-01  -2.9885737048475897e-01  -3.0661632351275481e-01  -3.0480512356651673e-01  -2.9966732929795481e-01  -3.3077066404303318e-01  -3.4165519065269306e-01  -1.8968560944450838e-01  -2.3017953862573864e-02  9.8199781929525689e-03  -7.7004381428912331e-04  -3.8551289598647053e-04  3.8165884338121287e-03  -2.0189082181515678e-02  -9.2214384962507639e-02  -1.8399579386805831e-01  -2.4100075116798733e-01  -2.4955646256294731e-01  -2.3643241592198105e-01  -2.4490431083369865e-01  -2.5762377348040216e-01  -2.5695161748635947e-01  -2.5875963022868326e-01  -2.5944614752520334e-01  -2.5891624671250896e-01  -2.5757901540670380e-01  -2.5771842514353038e-01  -2.5849522383661716e-01  -2.5953464745746369e-01  -2.6072386220300836e-01  -2.6214164376696125e-01  -2.6522422550923719e-01  -2.6958574028882704e-01  -2.7453237004600495e-01  -2.7522774595854665e-01  -2.7508654444711667e-01  -2.7814334892128295e-01  -2.7703076610052979e-01  -2.7284773972961907e-01  -3.0645067508266777e-01  -2.9836758484486353e-01  -1.1331414484850222e-01  -3.0120720313116544e-03  2.4429701858735284e-03  3.3338271184873941e-03  6.6179342688336531e-03  -4.0414091103662335e-02  -1.1823591489739184e-01  -1.8957134231489897e-01  -2.1014463493084415e-01  -2.0230878570517910e-01  -2.1210930375032089e-01  -2.1436594289456842e-01  -2.0593496103675885e-01  -2.0972943143892531e-01  -2.1465838159210035e-01  -2.1782091388387886e-01  -2.2251747808155287e-01  -2.2785609650651389e-01  -2.3212375909052985e-01  -2.3501521645138065e-01  -2.3740078441020834e-01  -2.3936837258315272e-01  -2.4090154073986245e-01  -2.4128968899284731e-01  -2.4073794727253076e-01  -2.4056906842949874e-01  -2.4348229102182087e-01  -2.4724799978855824e-01  -2.5051810861712648e-01  -2.5237455446361867e-01  -2.4681174351738083e-01  -2.4774487669513193e-01  -2.8564016940548159e-01  -2.2847986886762325e-01  -2.5787473875432263e-02  1.1244735203219849e-02  -8.5197053048266056e-03  6.1644436167365450e-03  -4.9123547660289486e-02  -1.2348053781308738e-01  -1.6809942239463493e-01  -1.7403149929772366e-01  -1.7922450911986196e-01  -1.7815988324700968e-01  -1.8152376947411117e-01  -1.9501597570324627e-01  -1.9962955058399559e-01  -1.9894766507205836e-01  -2.0081772853058885e-01  -2.0175818968327422e-01  -2.0097070459151475e-01  -2.0048460708034052e-01  -2.0124319211195982e-01  -2.0264964872502542e-01  -2.0438039177655656e-01  -2.0675926157527069e-01  -2.1004800013826913e-01  -2.1435333949710789e-01  -2.1790582234681291e-01  -2.1908400659586458e-01  -2.1828481441237732e-01  -2.1833891972577615e-01  -2.2314300830236497e-01  -2.2588324960261769e-01  -2.1557832999517695e-01  -2.2977406488281057e-01  -2.5523543270472976e-01  -1.1523065937087706e-01  -1.0014609433230445e-03  -4.1249575093857760e-03  7.2074930077555815e-03  -4.9400605749333151e-02  -1.0894248171117536e-01  -1.3608600414917643e-01  -1.3876456923589497e-01  -1.3930309527617932e-01  -1.5013918754127017e-01  -1.5423886912233362e-01  -1.4838740526102853e-01  -1.4828774227697583e-01  -1.5418463639167068e-01  -1.5864938390583244e-01  -1.6152971851849746e-01  -1.6645368691165927e-01  -1.7169918916460006e-01  -1.7557541796130771e-01  -1.7840442232136339e-01  -1.8073109449099906e-01  -1.8246552712783723e-01  -1.8328620415267707e-01  -1.8344271545649812e-01  -1.8431250187419790e-01  -1.8762227587390357e-01  -1.9246751156066708e-01  -1.9429738324863349e-01  -1.9177866421741399e-01  -1.9631429769959033e-01  -1.9581692387601138e-01  -1.8643027215516592e-01  -2.1989222738904152e-01  -1.8104579412592084e-01  9.4617686981473166e-03  1.0471102354050275e-02  5.6386167379173929e-03  -4.0581196509660751e-02  -8.6507854050269992e-02  -1.0318137632980626e-01  -1.0743810206702606e-01  -1.1906088513753962e-01  -1.1802839916682362e-01  -1.2103735039248675e-01  -1.3394715610803534e-01  -1.4057141140223459e-01  -1.4154185289398061e-01  -1.4138916843391211e-01  -1.4350219866937158e-01  -1.4459440075662700e-01  -1.4374062254423112e-01  -1.4387865904086208e-01  -1.4533762056311009e-01  -1.4749631503298222e-01  -1.5027785285841688e-01  -1.5397862630885120e-01  -1.5819089877328593e-01  -1.6143250999447997e-01  -1.6205575759774871e-01  -1.6155884040597715e-01  -1.6427546709887350e-01  -1.6754781921914166e-01  -1.6628165040139473e-01  -1.7036470948899668e-01  -1.6209805324480245e-01  -1.6996904029783472e-01  -1.8953560994659541e-01  -5.5477871993547492e-02  1.2745363314267023e-02  5.5855317851179545e-03  -2.8889861356346948e-02  -6.0761060734235477e-02  -7.2425364251607768e-02  -7.8731842571012095e-02  -8.0250885578231873e-02  -8.9948520506505536e-02  -9.6231942933206777e-02  -9.0085559853989625e-02  -8.9520545370959700e-02  -9.3776792102322690e-02  -9.8920996497627395e-02  -1.0293267879765580e-01  -1.0549509435716756e-01  -1.1049467060191462e-01  -1.1575508145820551e-01  -1.1929159722561755e-01  -1.2195117650982355e-01  -1.2398607851635420e-01  -1.2527045568236966e-01  -1.2621033450489838e-01  -1.2832817975177888e-01  -1.3252894245260491e-01  -1.3701161084035229e-01  -1.3816144601191277e-01  -1.3867505632054047e-01  -1.3976429713289701e-01  -1.4179945010547773e-01  -1.4011836188344318e-01  -1.3407252043923826e-01  -1.6323979417076298e-01  -8.8817214993605245e-02  2.1491454076900021e-02  3.6795084117223088e-03  -1.5166646361774243e-02  -3.6863236542737800e-02  -4.5236508650505630e-02  -5.0892858837791814e-02  -6.1613426571076033e-02  -6.1062213407028561e-02  -6.2444347132512242e-02  -7.5030437029048630e-02  -8.2420012034251811e-02  -8.3345051315503460e-02  -8.4022299950125362e-02  -8.4339717744372544e-02  -8.6289602133171522e-02  -8.7641889709343460e-02  -8.6755554877085111e-02  -8.7500611067915568e-02  -8.9878317180495854e-02  -9.3072365820437722e-02  -9.7175663407230425e-02  -1.0140438261419622e-01  -1.0466834366823978e-01  -1.0581323785569702e-01  -1.0668220684343321e-01  -1.0987813658767234e-01  -1.1374814478057449e-01  -1.1388873637908771e-01  -1.1407418443585460e-01  -1.1692822025852553e-01  -1.0505730766932804e-01  -1.2505020167992129e-01  -9.7588144857793227e-02  2.1231365388499120e-02  2.7768757309835019e-03  -2.7654846334910703e-03  -1.3859663729939728e-02  -1.9371224160604900e-02  -2.5508537231119875e-02  -2.4753746343053815e-02  -3.3433251138982628e-02  -3.9479796719192800e-02  -3.3149810643536254e-02  -3.0968953210362478e-02  -3.5032281793031923e-02  -3.9401465706326577e-02  -4.3223457597650942e-02  -4.6943218392940932e-02  -4.9385934061223699e-02  -5.4261387259955322e-02  -5.9792876458979100e-02  -6.2954934630410395e-02  -6.5263650061727602e-02  -6.7193864013861238e-02  -6.9220536279694211e-02  -7.2224356286891472e-02  -7.7379414603521005e-02  -8.2306656287916502e-02  -8.4422787570838709e-02  -8.5375760911547208e-02  -8.9247260779582865e-02  -8.8683878154800555e-02  -9.1288314922311625e-02  -8.4645368487000078e-02  -8.8961710420256412e-02  -7.8367763496493978e-02  1.3634706567539619e-02  3.5124822426469131e-04  9.8632515035745241e-03  7.1483494091456688e-03  4.2124502494029761e-03  5.4603222429381985e-04  -7.8479069617758447e-03  -6.2860156303712828e-03  -5.9767999468734265e-03  -1.7902903318132816e-02  -2.5119538281633422e-02  -2.5878553893183474e-02  -2.5724633939388113e-02  -2.6428281573594534e-02  -2.7174271825483910e-02  -2.8680172606508281e-02  -3.0424849652969415e-02  -2.9698904594544336e-02  -3.1061709825825942e-02  -3.5086481240848677e-02  -3.9227316571197206e-02  -4.4185354459819165e-02  -4.7948907539177660e-02  -5.0210528201863842e-02  -5.2339527880375360e-02  -5.7363223048125113e-02  -6.1684545681567192e-02  -6.3987529769978721e-02  -6.5164416142490481e-02  -6.7768880603657100e-02  -6.2619382264922460e-02  -6.2807740974044485e-02  -6.3367201120346384e-02  7.7475205693529319e-03  -1.3061986220991311e-03  2.0877967227995137e-02  2.8410947918008227e-02  2.8434897976967716e-02  2.4652510802306616e-02  2.8117824482936846e-02  2.0840744185346354e-02  1.5905219726585412e-02  2.3457186970994179e-02  2.6763709129480555e-02  2.3500503145037360e-02  1.9606508514737397e-02  1.6236392854525234e-02  1.3257416714216135e-02  9.9825179210547305e-03  7.2781875907715864e-03  2.6470333397801029e-03  -3.2151148315745694e-03  -6.2406753905794232e-03  -8.5606024355203442e-03  -1.1669936656746337e-02  -1.5771276176262419e-02  -2.2195340045670687e-02  -2.8221023561872324e-02  -3.2043634082497822e-02  -3.4918037467501634e-02  -4.0553455108289567e-02  -4.2782620807302787e-02  -4.5399551682980661e-02  -4.5987848534548091e-02  -4.1910981704337706e-02  -4.3911902643338538e-02  3.5101294381037996e-03  -4.3446234489079947e-03  3.1940126629118860e-02  4.9117802550677318e-02  5.1858242524515527e-02  5.0551646745832318e-02  4.4134775851804711e-02  4.7708002084907768e-02  4.9214923707967685e-02  3.7910987588467601e-02  3.1445814833975669e-02  3.1602561157266569e-02  3.2424671612158430e-02  3.2423118539973782e-02  3.1994510140775402e-02  3.0927576189934029e-02  2.9803512087686859e-02  2.7740563195706374e-02  2.7487170930600976e-02  2.5610645186659391e-02  1.9576839616043527e-02  1.4092862777087614e-02  9.2136763603558863e-03  5.3824769982739147e-03  1.4681027578475310e-03  -5.5690565147794146e-03  -1.2230321525895904e-02  -1.6745880186469581e-02  -2.1727604497796132e-02  -2.5867899376656397e-02  -2.7479406325222513e-02  -2.7760418267853724e-02  -3.5350888194428165e-02  1.6300066770830767e-03  -6.4514859753190086e-03  4.0186795453164177e-02  7.0762623166899893e-02  7.6996146175073513e-02  7.5410750258627535e-02  8.0491268607347538e-02  7.4333668108679488e-02  7.0795113592066805e-02  8.0226085224171351e-02  8.4364516182033458e-02  8.1768563204662512e-02  7.8725928450777569e-02  7.6008317953972296e-02  7.3779660019477208e-02  7.1113351110637074e-02  6.8247163935322694e-02  6.5216497290609160e-02  6.0673645724472626e-02  5.4102048342005292e-02  5.0380746854596238e-02  4.7744638612900993e-02  4.1544002108041288e-02  3.3900699466485107e-02  2.5771243208030727e-02  1.9641841100902991e-02  1.3762564680031354e-02  5.2824886836663901e-03  -1.1943128457639694e-03  -7.1912548962515766e-03  -1.4090887127362532e-02  -1.4681716625224370e-02  -2.3107622791481281e-02  1.4469535208773567e-05  -9.0605880585417440e-03  4.5181432951435355e-02  9.0438112594402112e-02  1.0188025310819955e-01  1.0240182416046846e-01  9.6164195759912099e-02  1.0217217583183662e-01  1.0390724339588789e-01  9.2732524251281756e-02  8.7718664146393552e-02  8.9113203107528641e-02  9.1054775696592191e-02  9.1907893496211979e-02  9.2100599666756794e-02  9.2041916520598399e-02  9.0914260189002158e-02  8.9255884561056903e-02  8.7059228284684737e-02  8.5348621282642700e-02  8.2292262560566792e-02  7.4253875893226476e-02  6.7160459814446585e-02  6.2511885641975212e-02  5.5663268389962210e-02  4.6371235751470799e-02  3.6230273652043531e-02  2.8090185125061451e-02  1.8499834678375546e-02  9.6425453231362840e-03  1.6164203949638502e-03  -5.5810601344565784e-03  -1.9695066065941132e-02  -4.9172413642749920e-04  -8.7407684054093583e-03  4.1492769118314239e-02  1.0654197789858338e-01  1.2743334338443307e-01  1.2917286629062386e-01  1.3382989454614835e-01  1.2754778976512515e-01  1.2600455792530482e-01  1.3736805110930270e-01  1.4197105123917500e-01  1.4005788358039101e-01  1.3788238235092937e-01  1.3676607802268814e-01  1.3509414306208029e-01  1.3353858910757538e-01  1.3146094026174029e-01  1.2875592558651164e-01  1.2501430758191473e-01  1.1981809440921429e-01  1.1272041015881305e-01  1.0709474576716339e-01  1.0244217643435705e-01  9.2137606301137862e-02  8.0802829663149806e-02  7.2302629967657350e-02  6.2347868334849468e-02  4.9852308789817654e-02  3.8261655280288631e-02  2.6562179829125909e-02  1.3058851288771389e-02  4.4061366509570692e-03  -1.1283151362123425e-02  -1.4002234025395613e-03  -7.8241971189322093e-03  2.9184013389283760e-02  1.1144310714146652e-01  1.5036335858007135e-01  1.5680364555998072e-01  1.4972540761526273e-01  1.5701252073604130e-01  1.5815087334651315e-01  1.4653195603397801e-01  1.4339365240212470e-01  1.4709268644686080e-01  1.4992975393015889e-01  1.5228266730757223e-01  1.5397672178255076e-01  1.5468337537339044e-01  1.5453575410729797e-01  1.5348248718306232e-01  1.5126715991529763e-01  1.4821121394107861e-01  1.4450195787729150e-01  1.3924823328814032e-01  1.2960367815145565e-01  1.2050157614476935e-01  1.1302817574263620e-01  1.0030219761909860e-01  8.5594118777174794e-02  7.3017189138712052e-02  5.7974946038074626e-02  4.2530036116207377e-02  2.7650333926528818e-02  1.1568823333829425e-02  -1.0335983126975696e-02  -1.5372193670627492e-03  -4.0754814357362116e-03  1.0773735065542116e-02  1.0141402405609114e-01  1.6649705394162811e-01  1.8393610851904640e-01  1.8936249314371581e-01  1.7995943676569159e-01  1.8108128795594719e-01  1.9490508180324184e-01  1.9882837064665504e-01  1.9783785177578916e-01  1.9785516681111340e-01  1.9788329001231880e-01  1.9829701168290664e-01  1.9820402802531251e-01  1.9736110591476078e-01  1.9539925920695000e-01  1.9232894769949618e-01  1.8781513760458940e-01  1.8135893113134438e-01  1.7302434848051931e-01  1.6428581209138335e-01  1.5493279304255980e-01  1.4050225484034626e-01  1.2721864937308741e-01  1.1349093769477782e-01  9.6095454569983335e-02  7.8431186782615042e-02  5.9465579707468762e-02  3.8872680892432211e-02  2.0395417728827820e-02  -3.7895189576664778e-03  -2.3001929165616638e-03  -1.5054464026495501e-03  3.6595217132168261e-03  7.1365663069219723e-02  1.6662392034025428e-01  2.0538961725608507e-01  2.0524248892255917e-01  2.1252682115349888e-01  2.0998961581114262e-01  1.9810411051202692e-01  1.9875917089263054e-01  2.0403396511998573e-01  2.0939529203817284e-01  2.1395914113734169e-01  2.1746336534520447e-01  2.2010293058354752e-01  2.2163206201927471e-01  2.2178