<?xml version="1.0"?>
<VTKFile type="UnstructuredGrid"  version="0.1"  >
<UnstructuredGrid>
<Piece  NumberOfPoints="4225" NumberOfCells="4096">
<Points>
<DataArray  type="Float64"  NumberOfComponents="3"  format="ascii">0 0 0  0.015625 0 0  0.03125 0 0  0.046875 0 0  0.0625 0 0  0.078125 0 0  0.09375 0 0  0.109375 0 0  0.125 0 0  0.140625 0 0  0.15625 0 0  0.171875 0 0  0.1875 0 0  0.203125 0 0  0.21875 0 0  0.234375 0 0  0.25 0 0  0.265625 0 0  0.28125 0 0  0.296875 0 0  0.3125 0 0  0.328125 0 0  0.34375 0 0  0.359375 0 0  0.375 0 0  0.390625 0 0  0.40625 0 0  0.421875 0 0  0.4375 0 0  0.453125 0 0  0.46875 0 0  0.484375 0 0  0.5 0 0  0.515625 0 0  0.53125 0 0  0.546875 0 0  0.5625 0 0  0.578125 0 0  0.59375 0 0  0.609375 0 0  0.625 0 0  0.640625 0 0  0.65625 0 0  0.671875 0 0  0.6875 0 0  0.703125 0 0  0.71875 0 0  0.734375 0 0  0.75 0 0  0.765625 0 0  0.78125 0 0  0.796875 0 0  0.8125 0 0  0.828125 0 0  0.84375 0 0  0.859375 0 0  0.875 0 0  0.890625 0 0  0.90625 0 0  0.921875 0 0  0.9375 0 0  0.953125 0 0  0.96875 0 0  0.984375 0 0  1 0 0  0 0.015625 0  0.015625 0.015625 0  0.03125 0.015625 0  0.046875 0.015625 0  0.0625 0.015625 0  0.078125 0.015625 0  0.09375 0.015625 0  0.109375 0.015625 0  0.125 0.015625 0  0.140625 0.015625 0  0.15625 0.015625 0  0.171875 0.015625 0  0.1875 0.015625 0  0.203125 0.015625 0  0.21875 0.015625 0  0.234375 0.015625 0  0.25 0.015625 0  0.265625 0.015625 0  0.28125 0.015625 0  0.296875 0.015625 0  0.3125 0.015625 0  0.328125 0.015625 0  0.34375 0.015625 0  0.359375 0.015625 0  0.375 0.015625 0  0.390625 0.015625 0  0.40625 0.015625 0  0.421875 0.015625 0  0.4375 0.015625 0  0.453125 0.015625 0  0.46875 0.015625 0  0.484375 0.015625 0  0.5 0.015625 0  0.515625 0.015625 0  0.53125 0.015625 0  0.546875 0.015625 0  0.5625 0.015625 0  0.578125 0.015625 0  0.59375 0.015625 0  0.609375 0.015625 0  0.625 0.015625 0  0.640625 0.015625 0  0.65625 0.015625 0  0.671875 0.015625 0  0.6875 0.015625 0  0.703125 0.015625 0  0.71875 0.015625 0  0.734375 0.015625 0  0.75 0.015625 0  0.765625 0.015625 0  0.78125 0.015625 0  0.796875 0.015625 0  0.8125 0.015625 0  0.828125 0.015625 0  0.84375 0.015625 0  0.859375 0.015625 0  0.875 0.015625 0  0.890625 0.015625 0  0.90625 0.015625 0  0.921875 0.015625 0  0.9375 0.015625 0  0.953125 0.015625 0  0.96875 0.015625 0  0.984375 0.015625 0  1 0.015625 0  0 0.03125 0  0.015625 0.03125 0  0.03125 0.03125 0  0.046875 0.03125 0  0.0625 0.03125 0  0.078125 0.03125 0  0.09375 0.03125 0  0.109375 0.03125 0  0.125 0.03125 0  0.140625 0.03125 0  0.15625 0.03125 0  0.171875 0.03125 0  0.1875 0.03125 0  0.203125 0.03125 0  0.21875 0.03125 0  0.234375 0.03125 0  0.25 0.03125 0  0.265625 0.03125 0  0.28125 0.03125 0  0.296875 0.03125 0  0.3125 0.03125 0  0.328125 0.03125 0  0.34375 0.03125 0  0.359375 0.03125 0  0.375 0.03125 0  0.390625 0.03125 0  0.40625 0.03125 0  0.421875 0.03125 0  0.4375 0.03125 0  0.453125 0.03125 0  0.46875 0.03125 0  0.484375 0.03125 0  0.5 0.03125 0  0.515625 0.03125 0  0.53125 0.03125 0  0.546875 0.03125 0  0.5625 0.03125 0  0.578125 0.03125 0  0.59375 0.03125 0  0.609375 0.03125 0  0.625 0.03125 0  0.640625 0.03125 0  0.65625 0.03125 0  0.671875 0.03125 0  0.6875 0.03125 0  0.703125 0.03125 0  0.71875 0.03125 0  0.734375 0.03125 0  0.75 0.03125 0  0.765625 0.03125 0  0.78125 0.03125 0  0.796875 0.03125 0  0.8125 0.03125 0  0.828125 0.03125 0  0.84375 0.03125 0  0.859375 0.03125 0  0.875 0.03125 0  0.890625 0.03125 0  0.90625 0.03125 0  0.921875 0.03125 0  0.9375 0.03125 0  0.953125 0.03125 0  0.96875 0.03125 0  0.984375 0.03125 0  1 0.03125 0  0 0.046875 0  0.015625 0.046875 0  0.03125 0.046875 0  0.046875 0.046875 0  0.0625 0.046875 0  0.078125 0.046875 0  0.09375 0.046875 0  0.109375 0.046875 0  0.125 0.046875 0  0.140625 0.046875 0  0.15625 0.046875 0  0.171875 0.046875 0  0.1875 0.046875 0  0.203125 0.046875 0  0.21875 0.046875 0  0.234375 0.046875 0  0.25 0.046875 0  0.265625 0.046875 0  0.28125 0.046875 0  0.296875 0.046875 0  0.3125 0.046875 0  0.328125 0.046875 0  0.34375 0.046875 0  0.359375 0.046875 0  0.375 0.046875 0  0.390625 0.046875 0  0.40625 0.046875 0  0.421875 0.046875 0  0.4375 0.046875 0  0.453125 0.046875 0  0.46875 0.046875 0  0.484375 0.046875 0  0.5 0.046875 0  0.515625 0.046875 0  0.53125 0.046875 0  0.546875 0.046875 0  0.5625 0.046875 0  0.578125 0.046875 0  0.59375 0.046875 0  0.609375 0.046875 0  0.625 0.046875 0  0.640625 0.046875 0  0.65625 0.046875 0  0.671875 0.046875 0  0.6875 0.046875 0  0.703125 0.046875 0  0.71875 0.046875 0  0.734375 0.046875 0  0.75 0.046875 0  0.765625 0.046875 0  0.78125 0.046875 0  0.796875 0.046875 0  0.8125 0.046875 0  0.828125 0.046875 0  0.84375 0.046875 0  0.859375 0.046875 0  0.875 0.046875 0  0.890625 0.046875 0  0.90625 0.046875 0  0.921875 0.046875 0  0.9375 0.046875 0  0.953125 0.046875 0  0.96875 0.046875 0  0.984375 0.046875 0  1 0.046875 0  0 0.0625 0  0.015625 0.0625 0  0.03125 0.0625 0  0.046875 0.0625 0  0.0625 0.0625 0  0.078125 0.0625 0  0.09375 0.0625 0  0.109375 0.0625 0  0.125 0.0625 0  0.140625 0.0625 0  0.15625 0.0625 0  0.171875 0.0625 0  0.1875 0.0625 0  0.203125 0.0625 0  0.21875 0.0625 0  0.234375 0.0625 0  0.25 0.0625 0  0.265625 0.0625 0  0.28125 0.0625 0  0.296875 0.0625 0  0.3125 0.0625 0  0.328125 0.0625 0  0.34375 0.0625 0  0.359375 0.0625 0  0.375 0.0625 0  0.390625 0.0625 0  0.40625 0.0625 0  0.421875 0.0625 0  0.4375 0.0625 0  0.453125 0.0625 0  0.46875 0.0625 0  0.484375 0.0625 0  0.5 0.0625 0  0.515625 0.0625 0  0.53125 0.0625 0  0.546875 0.0625 0  0.5625 0.0625 0  0.578125 0.0625 0  0.59375 0.0625 0  0.609375 0.0625 0  0.625 0.0625 0  0.640625 0.0625 0  0.65625 0.0625 0  0.671875 0.0625 0  0.6875 0.0625 0  0.703125 0.0625 0  0.71875 0.0625 0  0.734375 0.0625 0  0.75 0.0625 0  0.765625 0.0625 0  0.78125 0.0625 0  0.796875 0.0625 0  0.8125 0.0625 0  0.828125 0.0625 0  0.84375 0.0625 0  0.859375 0.0625 0  0.875 0.0625 0  0.890625 0.0625 0  0.90625 0.0625 0  0.921875 0.0625 0  0.9375 0.0625 0  0.953125 0.0625 0  0.96875 0.0625 0  0.984375 0.0625 0  1 0.0625 0  0 0.078125 0  0.015625 0.078125 0  0.03125 0.078125 0  0.046875 0.078125 0  0.0625 0.078125 0  0.078125 0.078125 0  0.09375 0.078125 0  0.109375 0.078125 0  0.125 0.078125 0  0.140625 0.078125 0  0.15625 0.078125 0  0.171875 0.078125 0  0.1875 0.078125 0  0.203125 0.078125 0  0.21875 0.078125 0  0.234375 0.078125 0  0.25 0.078125 0  0.265625 0.078125 0  0.28125 0.078125 0  0.296875 0.078125 0  0.3125 0.078125 0  0.328125 0.078125 0  0.34375 0.078125 0  0.359375 0.078125 0  0.375 0.078125 0  0.390625 0.078125 0  0.40625 0.078125 0  0.421875 0.078125 0  0.4375 0.078125 0  0.453125 0.078125 0  0.46875 0.078125 0  0.484375 0.078125 0  0.5 0.078125 0  0.515625 0.078125 0  0.53125 0.078125 0  0.546875 0.078125 0  0.5625 0.078125 0  0.578125 0.078125 0  0.59375 0.078125 0  0.609375 0.078125 0  0.625 0.078125 0  0.640625 0.078125 0  0.65625 0.078125 0  0.671875 0.078125 0  0.6875 0.078125 0  0.703125 0.078125 0  0.71875 0.078125 0  0.734375 0.078125 0  0.75 0.078125 0  0.765625 0.078125 0  0.78125 0.078125 0  0.796875 0.078125 0  0.8125 0.078125 0  0.828125 0.078125 0  0.84375 0.078125 0  0.859375 0.078125 0  0.875 0.078125 0  0.890625 0.078125 0  0.90625 0.078125 0  0.921875 0.078125 0  0.9375 0.078125 0  0.953125 0.078125 0  0.96875 0.078125 0  0.984375 0.078125 0  1 0.078125 0  0 0.09375 0  0.015625 0.09375 0  0.03125 0.09375 0  0.046875 0.09375 0  0.0625 0.09375 0  0.078125 0.09375 0  0.09375 0.09375 0  0.109375 0.09375 0  0.125 0.09375 0  0.140625 0.09375 0  0.15625 0.09375 0  0.171875 0.09375 0  0.1875 0.09375 0  0.203125 0.09375 0  0.21875 0.09375 0  0.234375 0.09375 0  0.25 0.09375 0  0.265625 0.09375 0  0.28125 0.09375 0  0.296875 0.09375 0  0.3125 0.09375 0  0.328125 0.09375 0  0.34375 0.09375 0  0.359375 0.09375 0  0.375 0.09375 0  0.390625 0.09375 0  0.40625 0.09375 0  0.421875 0.09375 0  0.4375 0.09375 0  0.453125 0.09375 0  0.46875 0.09375 0  0.484375 0.09375 0  0.5 0.09375 0  0.515625 0.09375 0  0.53125 0.09375 0  0.546875 0.09375 0  0.5625 0.09375 0  0.578125 0.09375 0  0.59375 0.09375 0  0.609375 0.09375 0  0.625 0.09375 0  0.640625 0.09375 0  0.65625 0.09375 0  0.671875 0.09375 0  0.6875 0.09375 0  0.703125 0.09375 0  0.71875 0.09375 0  0.734375 0.09375 0  0.75 0.09375 0  0.765625 0.09375 0  0.78125 0.09375 0  0.796875 0.09375 0  0.8125 0.09375 0  0.828125 0.09375 0  0.84375 0.09375 0  0.859375 0.09375 0  0.875 0.09375 0  0.890625 0.09375 0  0.90625 0.09375 0  0.921875 0.09375 0  0.9375 0.09375 0  0.953125 0.09375 0  0.96875 0.09375 0  0.984375 0.09375 0  1 0.09375 0  0 0.109375 0  0.015625 0.109375 0  0.03125 0.109375 0  0.046875 0.109375 0  0.0625 0.109375 0  0.078125 0.109375 0  0.09375 0.109375 0  0.109375 0.109375 0  0.125 0.109375 0  0.140625 0.109375 0  0.15625 0.109375 0  0.171875 0.109375 0  0.1875 0.109375 0  0.203125 0.109375 0  0.21875 0.109375 0  0.234375 0.109375 0  0.25 0.109375 0  0.265625 0.109375 0  0.28125 0.109375 0  0.296875 0.109375 0  0.3125 0.109375 0  0.328125 0.109375 0  0.34375 0.109375 0  0.359375 0.109375 0  0.375 0.109375 0  0.390625 0.109375 0  0.40625 0.109375 0  0.421875 0.109375 0  0.4375 0.109375 0  0.453125 0.109375 0  0.46875 0.109375 0  0.484375 0.109375 0  0.5 0.109375 0  0.515625 0.109375 0  0.53125 0.109375 0  0.546875 0.109375 0  0.5625 0.109375 0  0.578125 0.109375 0  0.59375 0.109375 0  0.609375 0.109375 0  0.625 0.109375 0  0.640625 0.109375 0  0.65625 0.109375 0  0.671875 0.109375 0  0.6875 0.109375 0  0.703125 0.109375 0  0.71875 0.109375 0  0.734375 0.109375 0  0.75 0.109375 0  0.765625 0.109375 0  0.78125 0.109375 0  0.796875 0.109375 0  0.8125 0.109375 0  0.828125 0.109375 0  0.84375 0.109375 0  0.859375 0.109375 0  0.875 0.109375 0  0.890625 0.109375 0  0.90625 0.109375 0  0.921875 0.109375 0  0.9375 0.109375 0  0.953125 0.109375 0  0.96875 0.109375 0  0.984375 0.109375 0  1 0.109375 0  0 0.125 0  0.015625 0.125 0  0.03125 0.125 0  0.046875 0.125 0  0.0625 0.125 0  0.078125 0.125 0  0.09375 0.125 0  0.109375 0.125 0  0.125 0.12
[...]
<PointData  Scalars="u_sol"> 
<DataArray  type="Float64"  Name="u_sol"  format="ascii">-9.7561237785686201e-09  4.8820690153743426e-08  2.2028460155834053e-07  4.9861591575133941e-07  8.7790770896973065e-07  1.3520218540314071e-06  1.9146892998541610e-06  2.5594921136362546e-06  3.2798780638697646e-06  4.0691673470463786e-06  4.9205623486052348e-06  5.8271575455346425e-06  6.7819503785390931e-06  7.7778529113358762e-06  8.8077043752235996e-06  9.8642846189821919e-06  1.0940328509234732e-05  1.2028541319918372e-05  1.3121615153892633e-05  1.4212246439924864e-05  1.5293154550164991e-05  1.6357101584678504e-05  1.7396913371272198e-05  1.8405501730357491e-05  1.9375888056033360e-05  2.0301228267060562e-05  2.1174839182119859e-05  2.1990226376234118e-05  2.2741113577210294e-05  2.3421473662146423e-05  2.4025561316938386e-05  2.4547947423056465e-05  2.4983555238135093e-05  2.5327698439518633e-05  2.5576121101360917e-05  2.5725039678660645e-05  2.5771187073953867e-05  2.5711858864692787e-05  2.5544961771609058e-05  2.5269064451167745e-05  2.4883450698253134e-05  2.4388175146599061e-05  2.3784121559083279e-05  2.3073063801286802e-05  2.2257729595262082e-05  2.1341867154270883e-05  2.0330314800448479e-05  1.9229073672587065e-05  1.8045383632879750e-05  1.6787802486973259e-05  1.5466288630775263e-05  1.4092287248958936e-05  1.2678820180732680e-05  1.1240579593457910e-05  9.7940255751046830e-06  8.3574878021392035e-06  6.9512714446424288e-06  5.5977671759788508e-06  4.3215668195397407e-06  3.1495789759278081e-06  2.1111675981172482e-06  1.2382266171800165e-06  5.6551876965822552e-07  1.3005053441187393e-07  -2.5929395341318742e-08  -1.2090522901545138e-06  6.0502257893371390e-06  2.7299327596345081e-05  6.1792246226567802e-05  1.0879695144967863e-04  1.6755275928303682e-04  2.3728276062090167e-04  3.1719159678182576e-04  4.0646726519364892e-04  5.0428195420199246e-04  6.0979325188345460e-04  7.2214537373655786e-04  8.4047050974129427e-04  9.6389026941849979e-04  1.0915172363512415e-03  1.2224566350394796e-03  1.3558081154638882e-03  1.4906676602763509e-03  1.6261296198748338e-03  1.7612888807541369e-03  1.8952431727189377e-03  2.0270955207314003e-03  2.1559568473609810e-03  2.2809487320040759e-03  2.4012063332471013e-03  2.5158814809590185e-03  2.6241459449177474e-03  2.7251948869995942e-03  2.8182505041923949e-03  2.9025658699310388e-03  2.9774289814996691e-03  3.0421670214963157e-03  3.0961508416159772e-03  3.1387996772747747e-03  3.1695861018726963e-03  3.1880412297753706e-03  3.1937601773858741e-03  3.1864077919765694e-03  3.1657246582591642e-03  3.1315333929872028e-03  3.0837452382105669e-03  3.0223669641368245e-03  2.9475080928981008e-03  2.8593884548749533e-03  2.7583460895948130e-03  2.6448455035945821e-03  2.5194862980214340e-03  2.3830121791421819e-03  2.2363203653379443e-03  2.0804714045750102e-03  1.9166994167820629e-03  1.7464227759737734e-03  1.5712552475222184e-03  1.3930175960549926e-03  1.2137496813585205e-03  1.0357230549237625e-03  8.6145408965481037e-04  6.9371760380374263e-04  5.3556120859239264e-04  3.9031961157694965e-04  2.6163182878805215e-04  1.5345038384000263e-04  7.0083334528837289e-05  1.6116842614391004e-05  -3.2133644399451459e-06  -2.2939950566659126e-06  1.1479394336226822e-05  5.1796372442336266e-05  1.1724150330840808e-04  2.0642586953925678e-04  3.1790618752835923e-04  4.5020838892519691e-04  6.0182340010223186e-04  7.7121056815060993e-04  9.5679924481564848e-04  1.1569910800302158e-03  1.3701623512764694e-03  1.5946665194262611e-03  1.8288369705240521e-03  2.0709899652564920e-03  2.3194278015581152e-03  2.5724422005520861e-03  2.8283179251567927e-03  3.0853366413341244e-03  3.3417810322084068e-03  3.5959391756559761e-03  3.8461091963172328e-03  4.0906042033539685e-03  4.3277575256538249e-03  4.5559282565751412e-03  4.7735071207282232e-03  4.9789226757030571e-03  5.1706478620802713e-03  5.3472069155014379e-03  5.5071826550266547e-03  5.6492241624719235e-03  5.7720548678980967e-03  5.8744810569155434e-03  5.9554008159745826e-03  6.0138134323345447e-03  6.0488292659393143e-03  6.0596801109800884e-03  6.0457300654924535e-03  6.0064869279202460e-03  5.9416141401781126e-03  5.8509432973612779e-03  5.7344872448887854e-03  5.5924537845160934e-03  5.4252600113267090e-03  5.2335473045015488e-03  5.0181969953739291e-03  4.7803467370088502e-03  4.5214076002932074e-03  4.2430819222965899e-03  3.9473819334492448e-03  3.6366491909151318e-03  3.3135748463167846e-03  2.9812207770345055e-03  2.6430416104465115e-03  2.3029076740885800e-03  1.9651288956941339e-03  1.6344797148628242e-03  1.3162249323722193e-03  1.0161469327395404e-03  7.4057282248788758e-04  4.9640708798132256e-04  2.9114904873820649e-04  1.3297259734435776e-04  3.0579287235098953e-05  -6.0968761937783449e-06  -3.2684141453281714e-06  1.6355490696422726e-05  7.3797890741546696e-05  1.6704211611600576e-04  2.9410927969930590e-04  4.5294303502918032e-04  6.4144317446931758e-04  8.5745961593556598e-04  1.0987972841546541e-03  1.3632183674071807e-03  1.6484455852847260e-03  1.9521655074920866e-03  2.2720321953301286e-03  2.6056711081031592e-03  2.9506833054321903e-03  3.3046499532377246e-03  3.6651371479236765e-03  4.0297010720566420e-03  4.3958934957532853e-03  4.7612676383507911e-03  5.1233844054619903e-03  5.4798190170198555e-03  5.8281680424429032e-03  6.1660568595948194e-03  6.4911475547680441e-03  6.8011472814948019e-03  7.0938170965800787e-03  7.3669812923580474e-03  7.6185372447994566e-03  7.8464657977415572e-03  8.0488422041739838e-03  8.2238476461969773e-03  8.3697813559690231e-03  8.4850733606836662e-03  8.5682978753575754e-03  8.6181873679771065e-03  8.6336473223352118e-03  8.6137717247013815e-03  8.5578593012968444e-03  8.4654305344046676e-03  8.3362454858232002e-03  8.1703224572755636e-03  7.9679575183196419e-03  7.7297449332577647e-03  7.4565985195293215e-03  7.1497739710802847e-03  6.8108921812433621e-03  6.4419636007286363e-03  6.0454136674264651e-03  5.6241093458450258e-03  5.1813868151890062e-03  4.7210803461964039e-03  4.2475524083687398e-03  3.7657250494349875e-03  3.2811125940345361e-03  2.7998556957636641e-03  2.3287568305501863e-03  1.8753171259685076e-03  1.4477751470920472e-03  1.0551455622920191e-03  7.0726567308573721e-04  4.1482028113056408e-04  1.8945529926014276e-04  4.3568435302350007e-05  -8.6866431542911341e-06  -4.1359559613797610e-06  2.0696761860726673e-05  9.3386215070080739e-05  2.1138044506010867e-04  3.7217530468373428e-04  5.7316862723709450e-04  8.1170274266978079e-04  1.0850568682059590e-03  1.3904532852511526e-03  1.7250601951496088e-03  2.0859958543096757e-03  2.4703327739222978e-03  2.8751023280094087e-03  3.2972996967158205e-03  3.7338891840499192e-03  4.1818099198970412e-03  4.6379819646951400e-03  5.0993128335948415e-03  5.5627044580902766e-03  6.0250606035632355e-03  6.4832947618518391e-03  6.9343385385895288e-03  7.3751505557286944e-03  7.8027258903470070e-03  8.2141060715399533e-03  8.6063896579289170e-03  8.9767434190609514e-03  9.3224141447458587e-03  9.6407411071678210e-03  9.9291692014231783e-03  1.0185262790974880e-02  1.0406720285376597e-02  1.0591389478508351e-02  1.0737283676477747e-02  1.0842598645282565e-02  1.0905730409296108e-02  1.0925293932633176e-02  1.0900142716476557e-02  1.0829389346497369e-02  1.0712427025584760e-02  1.0548952128214393e-02  1.0338987813928910e-02  1.0082908738581529e-02  9.7814669032037262e-03  9.4358186816021726e-03  9.0475530690690992e-03  8.6187211959055342e-03  8.1518671508070840e-03  7.6500601605551952e-03  7.1169281738752066e-03  6.5566928988201366e-03  5.9742063444474533e-03  5.3749889194715803e-03  4.7652691408420567e-03  4.1520250117006918e-03  3.5430271119278058e-03  2.9468835125892900e-03  2.3730863809271864e-03  1.8320610612122157e-03  1.3352150036852854e-03  8.9499664491330289e-04  5.2492687529207406e-04  2.3974280609050493e-04  5.5132894007253433e-05  -1.0992356576103933e-05  -4.9003160254499688e-06  2.4521700606937585e-05  1.1064478700819903e-04  2.5044536082033408e-04  4.4095648707917056e-04  6.7909509639065609e-04  9.6171235850912363e-04  1.2855846666881068e-03  1.6474209561383461e-03  2.0438660875565094e-03  2.4715057464588636e-03  2.9268714190439867e-03  3.4064458518474673e-03  3.9066689085956122e-03  4.4239438707086636e-03  4.9546441930938389e-03  5.4951207370154426e-03  6.0417094999741924e-03  6.5907398639052936e-03  7.1385433835470836e-03  7.6814631376228544e-03  8.2158636662311348e-03  8.7381415186316216e-03  9.2447364364236541e-03  9.7321431979504585e-03  1.0196924150621999e-02  1.0635722458734044e-02  1.1045276095272885e-02  1.1422432607132863e-02  1.1764164684138885e-02  1.2067586563260090e-02  1.2329971300422590e-02  1.2548768943381814e-02  1.2721625640197813e-02  1.2846403718969671e-02  1.2921202775631959e-02  1.2944381807795835e-02  1.2914582433826972e-02  1.2830753237603978e-02  1.2692175280679683e-02  1.2498488824889470e-02  1.2249721309804928e-02  1.1946316630828468e-02  1.1589165765154737e-02  1.1179638794302177e-02  1.0719618373430479e-02  1.0211534699220200e-02  9.6584020296887028e-03  9.0638568109688011e-03  8.4321974677543030e-03  7.7684259158967229e-03  7.0782908572970269e-03  6.3683329195161516e-03  5.6459317028357834e-03  4.9193548052131391e-03  4.1978088763237366e-03  3.4914928325765898e-03  2.8116530751002232e-03  2.1706416411500121e-03  1.5819741755369156e-03  1.0603996925703804e-03  6.2193785903760074e-04  2.8404933061560724e-04  6.5321925174234810e-05  -1.3023838247868261e-05  -5.5651766973811142e-06  2.7848733853899078e-05  1.2565675097737496e-04  2.8442506146178552e-04  5.0078418521747666e-04  7.7123275092616332e-04  1.0921947041659308e-03  1.4600090685514711e-03  1.8709382571444110e-03  2.3211719150526820e-03  2.8068324834934887e-03  3.3239808507673158e-03  3.8686225526627311e-03  4.4367144239501402e-03  5.0241717537178260e-03  5.6268759577700021e-03  6.2406827928299649e-03  6.8614311351855375e-03  7.4849523479768570e-03  8.1070802619441582e-03  8.7236617953496444e-03  9.3305682396432072e-03  9.9237072383407936e-03  1.0499035487504334e-02  1.1052572187160640e-02  1.1580413273974055e-02  1.2078746466492147e-02  1.2543867155319155e-02  1.2972195171636246e-02  1.3360292468584939e-02  1.3704881751157421e-02  1.4002866091398915e-02  1.4251349566922832e-02  1.4447658961967657e-02  1.4589366571490361e-02  1.4674314150092831e-02  1.4700638048916182e-02  1.4666795585014696e-02  1.4571592689138541e-02  1.4414212879310464e-02  1.4194247609079372e-02  1.3911728040874745e-02  1.3567158296469208e-02  1.3161550238184798e-02  1.2696459836151570e-02  1.2174025178650317e-02  1.1597006184336732e-02  1.0968826076966653e-02  1.0293614685108815e-02  9.5762536312488673e-03  8.8224234766964647e-03  8.0386528906050830e-03  7.2323699139930121e-03  6.4119553900116449e-03  5.5867986404592026e-03  4.7673554466830231e-03  3.9652084846464796e-03  3.1931300347262217e-03  2.4651480229260117e-03  1.7966118577003945e-03  1.2042716569889609e-03  7.0632058965217049e-04  3.2258832263252390e-04  7.4184615167915014e-05  -1.4790874973772952e-05  -6.1342238640507345e-06  3.0696306170234089e-05  1.3850533103222006e-04  3.1350792529672333e-04  5.5199007478887391e-04  8.5009238802763909e-04  1.2038731539669590e-03  1.6092970562034536e-03  2.0622443342447217e-03  2.5585150190229940e-03  3.0938350658934661e-03  3.6638625834292298e-03  4.2641946678263331e-03  4.8903747345215298e-03  5.5379004051707720e-03  6.2022319645588398e-03  6.8788014147152243e-03  7.5630221511862813e-03  8.2502992881402538e-03  8.9360406596587349e-03  9.6156685255591526e-03  1.0284632011035112e-02  1.0938420310390986e-02  1.1572576686164003e-02  1.2182713295969575e-02  1.2764526880485304e-02  1.3313815347095271e-02  1.3826495284856494e-02  1.4298620447625367e-02  1.4726401243387914e-02  1.5106225269083236e-02  1.5434678931488012e-02  1.5708570196048752e-02  1.5924952506901451e-02  1.6081149922714776e-02  1.6174783514426781e-02  1.6203799072419860e-02  1.6166496172199670e-02  1.6061558649201096e-02  1.5888086534953171e-02  1.5645629508484638e-02  1.5334221918549704e-02  1.4954419433999444e-02  1.4507337381418045e-02  1.3994690830989897e-02  1.3418836493456982e-02  1.2782816492981462e-02  1.2090404082723119e-02  1.1346151372015768e-02  1.0555439136124565e-02  9.7245287817891053e-03  8.8606165438462076e-03  7.9718899910695418e-03  7.0675869197540800e-03  6.1580567232285824e-03  5.2548243013804839e-03  4.3706566752867420e-03  3.5196321091695497e-03  2.7172129044109919e-03  1.9803179682821186e-03  1.3274101420498120e-03  7.7854287189166392e-04  3.5557343630717163e-04  8.1770097353809758e-05  -1.6303262928612384e-05  -6.6111424678275284e-06  3.3082857398100840e-05  1.4927372989961992e-04  3.3788228235999385e-04  5.9490574648033876e-04  9.1618467396857161e-04  1.2974708968462951e-03  1.7344153642226928e-03  2.2225780158295337e-03  2.7574323468368476e-03  3.3343720176766444e-03  3.9487175671100872e-03  4.5957237779885767e-03  5.2705875788837363e-03  5.9684565442551822e-03  6.6844380088601808e-03  7.4136088257994708e-03  8.1510257950912924e-03  8.8917367915218801e-03  9.6307926212550760e-03  1.0363259637748218e-02  1.1084233148537941e-02  1.1788851645527563e-02  1.2472311892500428e-02  1.3129884904710822e-02  1.3756932856564780e-02  1.4348926954595800e-02  1.4901466314171437e-02  1.5410297879630899e-02  1.5871337428856321e-02  1.6280691704620633e-02  1.6634681716435396e-02  1.6929867258039608e-02  1.7163072687132904e-02  1.7331414015458534e-02  1.7432327358888264e-02  1.7463598798751635e-02  1.7423395707287424e-02  1.7310299591779914e-02  1.7123340513670215e-02  1.6862033140715188e-02  1.6526414492094403e-02  1.6117083438246391e-02  1.5635242019153041e-02  1.5082738646773237e-02  1.4462113259376864e-02  1.3776644497628063e-02  1.3030398974427298e-02  1.2228282712744393e-02  1.1376094827948286e-02  1.0480583533528006e-02  9.5495045513494144e-03  8.5916820106636607e-03  7.6170719204986760e-03  6.6368283104729295e-03  5.6633721090989068e-03  4.7104629375067904e-03  3.7932736054305354e-03  2.9284685647439244e-03  2.1342821202025991e-03  1.4306125470607452e-03  8.3907239052588047e-04  3.8321827100966507e-04  8.8127492496740105e-05  -1.7570795775259971e-05  -6.9996177045455745e-06  3.5026828647864925e-05  1.5804515602824696e-04  3.5773647563666335e-04  6.2986281377906347e-04  9.7002031013509018e-04  1.3737111714628432e-03  1.8363307936577480e-03  2.3531782154665210e-03  2.9194609515372735e-03  3.5303019906426920e-03  4.1807469032127736e-03  4.8657716399134899e-03  5.5802908975818594e-03  6.3191671188684451e-03  7.0772201422151949e-03  7.8492375332894007e-03  8.6299856263457597e-03  9.4142213059560855e-03  1.0196704560319392e-02  1.0972211838496152e-02  1.1735550244984747e-02  1.2481572606189284e-02  1.3205193444484245e-02  1.3901405896777042e-02  1.4565299615694697e-02  1.5192079692788081e-02  1.5777086644446419e-02  1.6315817502555480e-02  1.6803948053311760e-02  1.7237356269023736e-02  1.7612146979190738e-02  1.7924677828656248e-02  1.8171586572174991e-02  1.8349819756326692e-02  1.8456662841346803e-02  1.8489771817126823e-02  1.8447206369371034e-02  1.8327464653675921e-02  1.8129519737133896e-02  1.7852857768942621e-02  1.7497517943442849e-02  1.7064134320996540e-02  1.6553979574164490e-02  1.5969010728750978e-02  1.5311916971442061e-02  1.4586169597993193e-02  1.3796074178205751e-02  1.2946825016287140e-02  1.2044561987594123e-02  1.1096429835288810e-02  1.0110640012822742e-02  9.0965351614100132e-03  8.0646563120960919e-03  7.0268129130446515e-03  5.9961557551712098e-03  4.9872529845056838e-03  4.0161689756080081e-03  3.1005473950797852e-03  2.2596940080197971e-03  1.5146763260532423e-03  8.8837686242513388e-04  4.0573644077365241e-04  9.3305924735752940e-05  -1.8603267849045794e-05  -7.3033347023088044e-06  3.6546660690878138e-05  1.6490281633727293e-04  3.7325884464979857e-04  6.5719288407694351e-04  1.0121099885266232e-03  1.4333172031831399e-03  1.9160101277894488e-03  2.4552838239562335e-03  3.0461378579227255e-03  3.6834836024384147e-03  4.3621516526961002e-03  5.0768999632956517e-03  5.8224225771812028e-03  6.5933590157824700e-03  7.3843043477090468e-03  8.1898199684695919e-03  9.0044451209231498e-03  9.8227091882220410e-03  1.0639144791815729e-02  1.1448301728260300e-02  1.2244761779703336e-02  1.3023154434092247e-02  1.3778173552360499e-02  1.4504595021093676e-02  1.5197295430457964e-02  1.5851271818489648e-02  1.6461662524208404e-02  1.7023769193409997e-02  1.7533079982432240e-02  1.7985294006673487e-02  1.8376347082162372e-02  1.8702438810047215e-02  1.8960061055487809e-02  1.9146027874092239e-02  1.9257506940748150e-02  1.9292052537458509e-02  1.9247640158595071e-02  1.9122702793844856e-02  1.8916168951034710e-02  1.8627502482987182e-02  1.8256744284577648e-02  1.7804555928246497e-02  1.7272265308351586e-02  1.6661914366944544e-02  1.5976308975812769e-02  1.5219071051950618e-02  1.4394692986004577e-02  1.3508594465700534e-02  1.2567181778764053e-02  1.1577909682490176e-02  1.0549345929603165e-02  9.4912385434365691e-03  8.4145859359296520e-03  7.3317099734289907e-03  6.2563320665928413e-03  5.2036524809640347e-03  4.1904326327345818e-03  3.2350817564187249e-03  2.3577433043199627e-03  1.5803989183373599e-03  9.2692399583048759e-04  4.2334155569580175e-04  9.7354517305047096e-05  -1.9410473305143453e-05  -7.5259786073857731e-06  3.7660794389305694e-05  1.6992991815620946e-04  3.8463772985205196e-04  6.7722756640355608e-04  1.0429644036663251e-03  1.4770122209498942e-03  1.9744201546818703e-03  2.5301337382318875e-03  3.1390000984040821e-03  3.7957754799201244e-03  4.4951328874301231e-03  5.2316704705340066e-03  5.9999205188228204e-03  6.7943591382806905e-03  7.6094166269251202e-03  8.4394885831475981e-03  9.2789477773672947e-03  1.0122156819726809e-02  1.0963481657389080e-02  1.1797305936212846e-02  1.2618046262737175e-02  1.3420168403621684e-02  1.4198204460935018e-02  1.4946771062964274e-02  1.5660588611542476e-02  1.6334501628247032e-02  1.6963500243222830e-02  1.7542742871824984e-02  1.8067580125756183e-02  1.8533580006903142e-02  1.8936554433642647e-02  1.9272587151007388e-02  1.9538063077763783e-02  1.9729699145162198e-02  1.9844576683885336e-02  1.9880175417526610e-02  1.9834409122794903e-02  1.9705663018557692e-02  1.9492832947804892e-02  1.9195366418638712e-02  1.8813305572481336e-02  1.8347332149831461e-02  1.7798814526100045e-02  1.7169856892325593e-02  1.6463350657887278e-02  1.5683028154732076e-02  1.4833518725089508e-02  1.3920407277176637e-02  1.2950295395983028e-02  1.1930865098948574e-02  1.0870945328906253e-02  9.7805812801603654e-03  8.6711066540395895e-03  7.5552189521186988e-03  6.4470578857379352e-03  5.3622871043663605e-03  4.3181790001654268e-03  3.3337040177416812e-03  2.4296196875176605e-03  1.6285777671387858e-03  9.5518150128612029e-04  4.3624722692723190e-04  1.0032239368255940e-04  -2.0002206347195203e-05  -7.6712345610567875e-06  3.8387670580298623e-05  1.7320966870247129e-04  3.9206147144344502e-04  6.9029846934541095e-04  1.0630942493972926e-03  1.5055194527457327e-03  2.0125276611196287e-03  2.5789668535918645e-03  3.1995847033693420e-03  3.8690362475044477e-03  4.5818916764025722e-03  5.3326448806803881e-03  6.1157226198174037e-03  6.9254943853183076e-03  7.7562829766092472e-03  8.6023758237754287e-03  9.4580370883448582e-03  1.0317520575475940e-02  1.1175083491759682e-02  1.2025001084082710e-02  1.2861582196174550e-02  1.3679185780705818e-02  1.4472238406066741e-02  1.5235252798268728e-02  1.5962847459754095e-02  1.6649767408285918e-02  1.7290906080515835e-02  1.7881328446297730e-02  1.8416295381322629e-02  1.8891289347209340e-02  1.9302041429782788e-02  1.9644559787922768e-02  1.9915159567057032e-02  2.0110494333120003e-02  2.0227589084588944e-02  2.0263874902059813e-02  2.0217225296718936e-02  2.0085994321020848e-02  1.9869056506892805e-02  1.9565848698846092e-02  1.9176413851502035e-02  1.8701446863220623e-02  1.8142342519763339e-02  1.7501245624231478e-02  1.6781103391886786e-02  1.5985720190908555e-02  1.5119814712636742e-02  1.41890796574393