<?xml version="1.0"?>
<VTKFile type="UnstructuredGrid"  version="0.1"  >
<UnstructuredGrid>
<Piece  NumberOfPoints="4225" NumberOfCells="4096">
<Points>
<DataArray  type="Float64"  NumberOfComponents="3"  format="ascii">0 0 0  0.015625 0 0  0.03125 0 0  0.046875 0 0  0.0625 0 0  0.078125 0 0  0.09375 0 0  0.109375 0 0  0.125 0 0  0.140625 0 0  0.15625 0 0  0.171875 0 0  0.1875 0 0  0.203125 0 0  0.21875 0 0  0.234375 0 0  0.25 0 0  0.265625 0 0  0.28125 0 0  0.296875 0 0  0.3125 0 0  0.328125 0 0  0.34375 0 0  0.359375 0 0  0.375 0 0  0.390625 0 0  0.40625 0 0  0.421875 0 0  0.4375 0 0  0.453125 0 0  0.46875 0 0  0.484375 0 0  0.5 0 0  0.515625 0 0  0.53125 0 0  0.546875 0 0  0.5625 0 0  0.578125 0 0  0.59375 0 0  0.609375 0 0  0.625 0 0  0.640625 0 0  0.65625 0 0  0.671875 0 0  0.6875 0 0  0.703125 0 0  0.71875 0 0  0.734375 0 0  0.75 0 0  0.765625 0 0  0.78125 0 0  0.796875 0 0  0.8125 0 0  0.828125 0 0  0.84375 0 0  0.859375 0 0  0.875 0 0  0.890625 0 0  0.90625 0 0  0.921875 0 0  0.9375 0 0  0.953125 0 0  0.96875 0 0  0.984375 0 0  1 0 0  0 0.015625 0  0.015625 0.015625 0  0.03125 0.015625 0  0.046875 0.015625 0  0.0625 0.015625 0  0.078125 0.015625 0  0.09375 0.015625 0  0.109375 0.015625 0  0.125 0.015625 0  0.140625 0.015625 0  0.15625 0.015625 0  0.171875 0.015625 0  0.1875 0.015625 0  0.203125 0.015625 0  0.21875 0.015625 0  0.234375 0.015625 0  0.25 0.015625 0  0.265625 0.015625 0  0.28125 0.015625 0  0.296875 0.015625 0  0.3125 0.015625 0  0.328125 0.015625 0  0.34375 0.015625 0  0.359375 0.015625 0  0.375 0.015625 0  0.390625 0.015625 0  0.40625 0.015625 0  0.421875 0.015625 0  0.4375 0.015625 0  0.453125 0.015625 0  0.46875 0.015625 0  0.484375 0.015625 0  0.5 0.015625 0  0.515625 0.015625 0  0.53125 0.015625 0  0.546875 0.015625 0  0.5625 0.015625 0  0.578125 0.015625 0  0.59375 0.015625 0  0.609375 0.015625 0  0.625 0.015625 0  0.640625 0.015625 0  0.65625 0.015625 0  0.671875 0.015625 0  0.6875 0.015625 0  0.703125 0.015625 0  0.71875 0.015625 0  0.734375 0.015625 0  0.75 0.015625 0  0.765625 0.015625 0  0.78125 0.015625 0  0.796875 0.015625 0  0.8125 0.015625 0  0.828125 0.015625 0  0.84375 0.015625 0  0.859375 0.015625 0  0.875 0.015625 0  0.890625 0.015625 0  0.90625 0.015625 0  0.921875 0.015625 0  0.9375 0.015625 0  0.953125 0.015625 0  0.96875 0.015625 0  0.984375 0.015625 0  1 0.015625 0  0 0.03125 0  0.015625 0.03125 0  0.03125 0.03125 0  0.046875 0.03125 0  0.0625 0.03125 0  0.078125 0.03125 0  0.09375 0.03125 0  0.109375 0.03125 0  0.125 0.03125 0  0.140625 0.03125 0  0.15625 0.03125 0  0.171875 0.03125 0  0.1875 0.03125 0  0.203125 0.03125 0  0.21875 0.03125 0  0.234375 0.03125 0  0.25 0.03125 0  0.265625 0.03125 0  0.28125 0.03125 0  0.296875 0.03125 0  0.3125 0.03125 0  0.328125 0.03125 0  0.34375 0.03125 0  0.359375 0.03125 0  0.375 0.03125 0  0.390625 0.03125 0  0.40625 0.03125 0  0.421875 0.03125 0  0.4375 0.03125 0  0.453125 0.03125 0  0.46875 0.03125 0  0.484375 0.03125 0  0.5 0.03125 0  0.515625 0.03125 0  0.53125 0.03125 0  0.546875 0.03125 0  0.5625 0.03125 0  0.578125 0.03125 0  0.59375 0.03125 0  0.609375 0.03125 0  0.625 0.03125 0  0.640625 0.03125 0  0.65625 0.03125 0  0.671875 0.03125 0  0.6875 0.03125 0  0.703125 0.03125 0  0.71875 0.03125 0  0.734375 0.03125 0  0.75 0.03125 0  0.765625 0.03125 0  0.78125 0.03125 0  0.796875 0.03125 0  0.8125 0.03125 0  0.828125 0.03125 0  0.84375 0.03125 0  0.859375 0.03125 0  0.875 0.03125 0  0.890625 0.03125 0  0.90625 0.03125 0  0.921875 0.03125 0  0.9375 0.03125 0  0.953125 0.03125 0  0.96875 0.03125 0  0.984375 0.03125 0  1 0.03125 0  0 0.046875 0  0.015625 0.046875 0  0.03125 0.046875 0  0.046875 0.046875 0  0.0625 0.046875 0  0.078125 0.046875 0  0.09375 0.046875 0  0.109375 0.046875 0  0.125 0.046875 0  0.140625 0.046875 0  0.15625 0.046875 0  0.171875 0.046875 0  0.1875 0.046875 0  0.203125 0.046875 0  0.21875 0.046875 0  0.234375 0.046875 0  0.25 0.046875 0  0.265625 0.046875 0  0.28125 0.046875 0  0.296875 0.046875 0  0.3125 0.046875 0  0.328125 0.046875 0  0.34375 0.046875 0  0.359375 0.046875 0  0.375 0.046875 0  0.390625 0.046875 0  0.40625 0.046875 0  0.421875 0.046875 0  0.4375 0.046875 0  0.453125 0.046875 0  0.46875 0.046875 0  0.484375 0.046875 0  0.5 0.046875 0  0.515625 0.046875 0  0.53125 0.046875 0  0.546875 0.046875 0  0.5625 0.046875 0  0.578125 0.046875 0  0.59375 0.046875 0  0.609375 0.046875 0  0.625 0.046875 0  0.640625 0.046875 0  0.65625 0.046875 0  0.671875 0.046875 0  0.6875 0.046875 0  0.703125 0.046875 0  0.71875 0.046875 0  0.734375 0.046875 0  0.75 0.046875 0  0.765625 0.046875 0  0.78125 0.046875 0  0.796875 0.046875 0  0.8125 0.046875 0  0.828125 0.046875 0  0.84375 0.046875 0  0.859375 0.046875 0  0.875 0.046875 0  0.890625 0.046875 0  0.90625 0.046875 0  0.921875 0.046875 0  0.9375 0.046875 0  0.953125 0.046875 0  0.96875 0.046875 0  0.984375 0.046875 0  1 0.046875 0  0 0.0625 0  0.015625 0.0625 0  0.03125 0.0625 0  0.046875 0.0625 0  0.0625 0.0625 0  0.078125 0.0625 0  0.09375 0.0625 0  0.109375 0.0625 0  0.125 0.0625 0  0.140625 0.0625 0  0.15625 0.0625 0  0.171875 0.0625 0  0.1875 0.0625 0  0.203125 0.0625 0  0.21875 0.0625 0  0.234375 0.0625 0  0.25 0.0625 0  0.265625 0.0625 0  0.28125 0.0625 0  0.296875 0.0625 0  0.3125 0.0625 0  0.328125 0.0625 0  0.34375 0.0625 0  0.359375 0.0625 0  0.375 0.0625 0  0.390625 0.0625 0  0.40625 0.0625 0  0.421875 0.0625 0  0.4375 0.0625 0  0.453125 0.0625 0  0.46875 0.0625 0  0.484375 0.0625 0  0.5 0.0625 0  0.515625 0.0625 0  0.53125 0.0625 0  0.546875 0.0625 0  0.5625 0.0625 0  0.578125 0.0625 0  0.59375 0.0625 0  0.609375 0.0625 0  0.625 0.0625 0  0.640625 0.0625 0  0.65625 0.0625 0  0.671875 0.0625 0  0.6875 0.0625 0  0.703125 0.0625 0  0.71875 0.0625 0  0.734375 0.0625 0  0.75 0.0625 0  0.765625 0.0625 0  0.78125 0.0625 0  0.796875 0.0625 0  0.8125 0.0625 0  0.828125 0.0625 0  0.84375 0.0625 0  0.859375 0.0625 0  0.875 0.0625 0  0.890625 0.0625 0  0.90625 0.0625 0  0.921875 0.0625 0  0.9375 0.0625 0  0.953125 0.0625 0  0.96875 0.0625 0  0.984375 0.0625 0  1 0.0625 0  0 0.078125 0  0.015625 0.078125 0  0.03125 0.078125 0  0.046875 0.078125 0  0.0625 0.078125 0  0.078125 0.078125 0  0.09375 0.078125 0  0.109375 0.078125 0  0.125 0.078125 0  0.140625 0.078125 0  0.15625 0.078125 0  0.171875 0.078125 0  0.1875 0.078125 0  0.203125 0.078125 0  0.21875 0.078125 0  0.234375 0.078125 0  0.25 0.078125 0  0.265625 0.078125 0  0.28125 0.078125 0  0.296875 0.078125 0  0.3125 0.078125 0  0.328125 0.078125 0  0.34375 0.078125 0  0.359375 0.078125 0  0.375 0.078125 0  0.390625 0.078125 0  0.40625 0.078125 0  0.421875 0.078125 0  0.4375 0.078125 0  0.453125 0.078125 0  0.46875 0.078125 0  0.484375 0.078125 0  0.5 0.078125 0  0.515625 0.078125 0  0.53125 0.078125 0  0.546875 0.078125 0  0.5625 0.078125 0  0.578125 0.078125 0  0.59375 0.078125 0  0.609375 0.078125 0  0.625 0.078125 0  0.640625 0.078125 0  0.65625 0.078125 0  0.671875 0.078125 0  0.6875 0.078125 0  0.703125 0.078125 0  0.71875 0.078125 0  0.734375 0.078125 0  0.75 0.078125 0  0.765625 0.078125 0  0.78125 0.078125 0  0.796875 0.078125 0  0.8125 0.078125 0  0.828125 0.078125 0  0.84375 0.078125 0  0.859375 0.078125 0  0.875 0.078125 0  0.890625 0.078125 0  0.90625 0.078125 0  0.921875 0.078125 0  0.9375 0.078125 0  0.953125 0.078125 0  0.96875 0.078125 0  0.984375 0.078125 0  1 0.078125 0  0 0.09375 0  0.015625 0.09375 0  0.03125 0.09375 0  0.046875 0.09375 0  0.0625 0.09375 0  0.078125 0.09375 0  0.09375 0.09375 0  0.109375 0.09375 0  0.125 0.09375 0  0.140625 0.09375 0  0.15625 0.09375 0  0.171875 0.09375 0  0.1875 0.09375 0  0.203125 0.09375 0  0.21875 0.09375 0  0.234375 0.09375 0  0.25 0.09375 0  0.265625 0.09375 0  0.28125 0.09375 0  0.296875 0.09375 0  0.3125 0.09375 0  0.328125 0.09375 0  0.34375 0.09375 0  0.359375 0.09375 0  0.375 0.09375 0  0.390625 0.09375 0  0.40625 0.09375 0  0.421875 0.09375 0  0.4375 0.09375 0  0.453125 0.09375 0  0.46875 0.09375 0  0.484375 0.09375 0  0.5 0.09375 0  0.515625 0.09375 0  0.53125 0.09375 0  0.546875 0.09375 0  0.5625 0.09375 0  0.578125 0.09375 0  0.59375 0.09375 0  0.609375 0.09375 0  0.625 0.09375 0  0.640625 0.09375 0  0.65625 0.09375 0  0.671875 0.09375 0  0.6875 0.09375 0  0.703125 0.09375 0  0.71875 0.09375 0  0.734375 0.09375 0  0.75 0.09375 0  0.765625 0.09375 0  0.78125 0.09375 0  0.796875 0.09375 0  0.8125 0.09375 0  0.828125 0.09375 0  0.84375 0.09375 0  0.859375 0.09375 0  0.875 0.09375 0  0.890625 0.09375 0  0.90625 0.09375 0  0.921875 0.09375 0  0.9375 0.09375 0  0.953125 0.09375 0  0.96875 0.09375 0  0.984375 0.09375 0  1 0.09375 0  0 0.109375 0  0.015625 0.109375 0  0.03125 0.109375 0  0.046875 0.109375 0  0.0625 0.109375 0  0.078125 0.109375 0  0.09375 0.109375 0  0.109375 0.109375 0  0.125 0.109375 0  0.140625 0.109375 0  0.15625 0.109375 0  0.171875 0.109375 0  0.1875 0.109375 0  0.203125 0.109375 0  0.21875 0.109375 0  0.234375 0.109375 0  0.25 0.109375 0  0.265625 0.109375 0  0.28125 0.109375 0  0.296875 0.109375 0  0.3125 0.109375 0  0.328125 0.109375 0  0.34375 0.109375 0  0.359375 0.109375 0  0.375 0.109375 0  0.390625 0.109375 0  0.40625 0.109375 0  0.421875 0.109375 0  0.4375 0.109375 0  0.453125 0.109375 0  0.46875 0.109375 0  0.484375 0.109375 0  0.5 0.109375 0  0.515625 0.109375 0  0.53125 0.109375 0  0.546875 0.109375 0  0.5625 0.109375 0  0.578125 0.109375 0  0.59375 0.109375 0  0.609375 0.109375 0  0.625 0.109375 0  0.640625 0.109375 0  0.65625 0.109375 0  0.671875 0.109375 0  0.6875 0.109375 0  0.703125 0.109375 0  0.71875 0.109375 0  0.734375 0.109375 0  0.75 0.109375 0  0.765625 0.109375 0  0.78125 0.109375 0  0.796875 0.109375 0  0.8125 0.109375 0  0.828125 0.109375 0  0.84375 0.109375 0  0.859375 0.109375 0  0.875 0.109375 0  0.890625 0.109375 0  0.90625 0.109375 0  0.921875 0.109375 0  0.9375 0.109375 0  0.953125 0.109375 0  0.96875 0.109375 0  0.984375 0.109375 0  1 0.109375 0  0 0.125 0  0.015625 0.125 0  0.03125 0.125 0  0.046875 0.125 0  0.0625 0.125 0  0.078125 0.125 0  0.09375 0.125 0  0.109375 0.125 0  0.125 0.12
[...]
<PointData  Scalars="v_sol"> 
<DataArray  type="Float64"  Name="v_sol"  format="ascii">4.8942446042945084e-09  1.2194550988659202e-06  2.3739665189758645e-06  3.4666127129459570e-06  4.4957276877322534e-06  5.4596865643922656e-06  6.3569429346664940e-06  7.1860274823352411e-06  7.9455573808193788e-06  8.6342432210023499e-06  9.2508970317906423e-06  9.7944404546238332e-06  1.0263913339186309e-05  1.0658482704819204e-05  1.0977452099261602e-05  1.1220271363361299e-05  1.1386546817191722e-05  1.1476051881551686e-05  1.1488738149960774e-05  1.1424746926369326e-05  1.1284421244390366e-05  1.1068318384316873e-05  1.0777222904652568e-05  1.0412160205413534e-05  9.9744106408435129e-06  9.4655241999584496e-06  8.8873357735386881e-06  8.2419810270882320e-06  7.5319128995099038e-06  6.7599187481066390e-06  5.9291381609756617e-06  5.0430814584230848e-06  4.1056489058184650e-06  3.1211506608141440e-06  2.0943274785552029e-06  1.0303721992684315e-06  -6.5047956850940800e-08  -1.1857682616650921e-06  -2.3251024915707442e-06  -3.4758180532475521e-06  -4.6301101946478653e-06  -5.7795752724256559e-06  -6.9151830463057010e-06  -8.0272479699194083e-06  -9.1053994466471171e-06  -1.0138551018654531e-05  -1.1114868455868160e-05  -1.2021736710780417e-05  -1.2845725704422589e-05  -1.3572554907471755e-05  -1.4187056679490669e-05  -1.4673138328718844e-05  -1.5013742852589011e-05  -1.5190808321275772e-05  -1.5185225855317699e-05  -1.4976796181920913e-05  -1.4544184630364950e-05  -1.3864874872740903e-05  -1.2915120064966388e-05  -1.1669896180084277e-05  -1.0102839421648306e-05  -8.1862351356569382e-06  -5.8908061735252551e-06  -3.1862417641242991e-06  -3.8952862790770743e-08  -2.4517696015074828e-08  -6.1088533930491786e-06  -1.1892371791968024e-05  -1.7365976697398032e-05  -2.2521322316335748e-05  -2.7350268841134613e-05  -3.1845069536706963e-05  -3.5998363878677383e-05  -3.9803224601243642e-05  -4.3253192418729043e-05  -4.6342316195510419e-05  -4.9065193900879089e-05  -5.1417015666780189e-05  -5.3393608681196966e-05  -5.4991484070072278e-05  -5.6207885813929260e-05  -5.7040841774982377e-05  -5.7489216905556441e-05  -5.7552768713232622e-05  -5.7232205058890932e-05  -5.6529244367027353e-05  -5.5446678329642914e-05  -5.3988437187777813e-05  -5.2159657676595502e-05  -4.9966753723079862e-05  -4.7417489988222370e-05  -4.4521058346739959e-05  -4.1288157402730906e-05  -3.7731075139673199e-05  -3.3863774808146838e-05  -2.9701984157098090e-05  -2.5263288116302861e-05  -2.0567225043307030e-05  -1.5635386648775438e-05  -1.0491521719179916e-05  -5.1616437586298160e-06  3.2585732483859980e-07  5.9400993599552016e-06  1.1647587746849864e-05  1.7412090849672876e-05  2.3194510806500419e-05  2.8952749613259503e-05  3.4641570331650995e-05  4.0212453271825395e-05  4.5613446988301440e-05  5.0789013933295813e-05  5.5679870598177656e-05  6.0222821974238166e-05  6.4350590157295000e-05  6.7991636916998709e-05  7.1069980045622530e-05  7.3505003295162396e-05  7.5211259710187975e-05  7.6098268154212081e-05  7.6070302809752758e-05  7.5026175526036248e-05  7.2859010409709324e-05  6.9456012010583195e-05  6.4698220712624917e-05  5.8460278674375648e-05  5.0610116822621873e-05  4.1008898398831163e-05  2.9509960142036032e-05  1.5961460122993240e-05  1.9513408069502857e-07  -1.0859986328972522e-07  -2.7058866827465497e-05  -5.2676678445430961e-05  -7.6921743379655417e-05  -9.9757094402891781e-05  -1.2114667654515434e-04  -1.4105617609199794e-04  -1.5945298993461679e-04  -1.7630643411227745e-04  -1.9158789753227862e-04  -2.0527101993982771e-04  -2.1733187330665699e-04  -2.2774915256239188e-04  -2.3650437444326853e-04  -2.4358208515549285e-04  -2.4897007704806037e-04  -2.5265961463491086e-04  -2.5464567027951430e-04  -2.5492716987444633e-04  -2.5350724885528884e-04  -2.5039351889928981e-04  -2.4559834566941516e-04  -2.3913913797538554e-04  -2.3103864873337586e-04  -2.2132528811843240e-04  -2.1003344931502406e-04  -1.9720384728162739e-04  -1.8288387096018484e-04  -1.6712794937081006e-04  -1.4999793204757838e-04  -1.3156348428253163e-04  -1.1190249765982100e-04  -9.1101516375382958e-05  -6.9256179851716340e-05  -4.6471682172661454e-05  -2.2863248877398936e-05  1.4433683307310207e-06  2.6311378391074702e-05  5.1592418618251374e-05  7.7126002760024353e-05  1.0273894875646689e-04  1.2824478556287700e-04  1.5344313838026199e-04  1.7811909161816249e-04  2.0204252889329671e-04  2.2496744935519305e-04  2.4663125960106220e-04  2.6675404042789797e-04  2.8503778764588192e-04  3.0116562615803080e-04  3.1480099648458453e-04  3.2558681289451943e-04  3.3314459226903498e-04  3.3707355284402741e-04  3.3694968177696113e-04  3.3232477113761047e-04  3.2272541932503661e-04  3.0765200455477756e-04  2.8657760077060768e-04  2.5894694210854311e-04  2.2417503404378921e-04  1.8164690784750666e-04  1.3071292303950256e-04  7.0700505214762817e-05  8.6433710070106253e-07  -2.4176684823946069e-07  -6.0238919173709106e-05  -1.1726973646895230e-04  -1.7124452124923494e-04  -2.2208097642357114e-04  -2.6969883573612122e-04  -3.1402170943004422e-04  -3.5497701589598638e-04  -3.9249644598325520e-04  -4.2651630518754092e-04  -4.5697790986130854e-04  -4.8382799101956842e-04  -5.0701911895106291e-04  -5.2651014589816876e-04  -5.4226666836086255e-04  -5.5426150945748207e-04  -5.6247522209903176e-04  -5.6689661367459985e-04  -5.6752329298741472e-04  -5.6436224019752756e-04  -5.5743040055128109e-04  -5.4675530270022871e-04  -5.3237570243631156e-04  -5.1434225269407117e-04  -4.9271820069625970e-04  -4.6758011314508861e-04  -4.3901863038657292e-04  -4.0713925050464176e-04  -3.7206314432822841e-04  -3.3392800236337641e-04  -2.9288891469222571e-04  -2.4911928491128820e-04  -2.0281177921101408e-04  -1.5417931173271473e-04  -1.0345606736979043e-04  -5.0898563215002102e-05  3.2132501107933085e-06  5.8574845978177185e-05  1.1485593680685941e-04  1.7169924532125017e-04  2.2871923061798738e-04  2.8550076762412111e-04  3.4159777848601254e-04  3.9653181438415326e-04  4.4979058622865561e-04  5.0082644264889140e-04  5.4905479364255249e-04  5.9385247820634059e-04  6.3455607422257805e-04  6.7046014882929936e-04  7.0081544744846362e-04  7.2482701960470582e-04  7.4165227958653272e-04  7.5039900005504734e-04  7.5012323624263223e-04  7.3982717986876775e-04  7.1845693605511994e-04  6.8490023814533365e-04  6.3798403414165486e-04  5.7647218171736736e-04  4.9906235555555395e-04  4.0438550233463819e-04  2.9099537981004686e-04  1.5739469229036595e-04  1.9242022917170037e-06  -4.1888911430764917e-07  -1.0437092692198976e-04  -2.0318344482559407e-04  -2.9670103132291195e-04  -3.8478109709753325e-04  -4.6728457148370877e-04  -5.4407910036552757e-04  -6.1503892767293558e-04  -6.8004569988113482e-04  -7.3898905887195463e-04  -7.9176732842046679e-04  -8.3828821383141088e-04  -8.7846953762871043e-04  -9.1224000654882434e-04  -9.3954001253647489e-04  -9.6032246849025212e-04  -9.7455368007094278e-04  -9.8221425477983950e-04  -9.8330004958926531e-04  -9.7782315843465369e-04  -9.6581294092039111e-04  -9.4731709362927592e-04  -9.2240276546907312e-04  -8.9115771852965456e-04  -8.5369153596904319e-04  -8.1013687849171084e-04  -7.6065079102628210e-04  -7.0541606125967132e-04  -6.4464263173166607e-04  -5.7856906724263032e-04  -5.0746407938080315e-04  -4.3162811002573595e-04  -3.5139497573883331e-04  -2.6713357500809850e-04  -1.7924966036966515e-04  -8.8187677488342541e-05  5.5673266627755785e-06  1.0148772432097719e-04  1.9900125388527608e-04  2.9748889097139057e-04  3.9628264117572457e-04  4.9466325208241571e-04  5.9185784198395640e-04  6.8703744270945226e-04  7.7931445388357723e-04  8.6774000586509659e-04  9.5130122853552665e-04  1.0289184230299028e-03  1.0994421334187703e-03  1.1616501152727590e-03  1.2142441979445993e-03  1.2558470373344498e-03  1.2849987557615405e-03  1.3001534656627482e-03  1.2996756730235329e-03  1.2818365590489677e-03  1.2448101283910899e-03  1.1866692498563273e-03  1.1053814745205363e-03  9.9880504229236033e-04  8.6468352302926669e-04  7.0064487320656386e-04  5.0418330929196233e-04  2.7270459328957255e-04  3.3339040582116567e-06  -6.3493798989842096e-07  -1.5820193957687996e-04  -3.0797863001813362e-04  -4.4972944161846110e-04  -5.8323824222797339e-04  -7.0829423315839888e-04  -8.2469679649595944e-04  -9.3225531542333686e-04  -1.0307903936652883e-03  -1.1201347541144387e-03  -1.2001342793864624e-03  -1.2706490723024167e-03  -1.3315545710220376e-03  -1.3827427116258240e-03  -1.4241231422371416e-03  -1.4556244898170810e-03  -1.4771956816222568e-03  -1.4888073231552226e-03  -1.4904531345511151e-03  -1.4821514473854313e-03  -1.4639467639521212e-03  -1.4359113811191163e-03  -1.3981470809338384e-03  -1.3507868902115877e-03  -1.2939969114097334e-03  -1.2279782271553126e-03  -1.1529688808633181e-03  -1.0692459359577028e-03  -9.7712761627592780e-04  -8.7697553031670168e-04  -7.6919698206601183e-04  -6.5424737121784254e-04  -5.3263268568552659e-04  -4.0491208938498233e-04  -2.7170060835625317e-04  -1.3367191837947796e-04  8.4387626707038783e-06  1.5383167439415296e-04  3.0163940192235968e-04  4.5092364893457474e-04  6.0067189200214228e-04  7.4979391252473753e-04  8.9711820242256658e-04  1.0413882396371418e-03  1.1812586293803657e-03  1.3152911069648453e-03  1.4419503979246780e-03  1.5595999310195068e-03  1.6664973995901668e-03  1.7607901666115045e-03  1.8405105086475172e-03  1.9035706938049768e-03  1.9477578885671698e-03  1.9707288885367231e-03  1.9700046668796193e-03  1.9429647382131229e-03  1.8868413202103615e-03  1.7987133322620594e-03  1.6755000566566910e-03  1.5139550855872517e-03  1.3106581980385495e-03  1.0620139305163633e-03  7.6422410013134991e-04  4.1335644875742855e-04  5.0534196173188843e-06  -8.8508079167793245e-07  -2.2052783961532853e-04  -4.2931118383163051e-04  -6.2690674035240427e-04  -8.1301322862911436e-04  -9.8733680278320808e-04  -1.1495978086203109e-03  -1.2995305331231840e-03  -1.4368849043230206e-03  -1.5614277439388938e-03  -1.6729442178750331e-03  -1.7712393144915107e-03  -1.8561393990596323e-03  -1.9274938343584824e-03  -1.9851766731174654e-03  -2.0290884238824878e-03  -2.0591578930807060e-03  -2.0753441058343272e-03  -2.0776383082322081e-03  -2.0660660538273363e-03  -2.0406893772147720e-03  -2.0016090576294335e-03  -1.9489669755901520e-03  -1.8829485657039582e-03  -1.8037853688399113e-03  -1.7117576869726920e-03  -1.6071973440947762e-03  -1.4904905566958532e-03  -1.3620809174109767e-03  -1.2224724955411132e-03  -1.0722330582614893e-03  -9.1199741644256956e-04  -7.4247089912006438e-04  -5.6443296077174224e-04  -3.7874092567350104e-04  -1.8633387373537502e-04  1.1763327659828480e-05  2.1443584116358539e-04  4.2047452152328484e-04  6.2857141728204450e-04  8.3731510705149532e-04  1.0451858651547553e-03  1.2505506512859258e-03  1.4516579186903259e-03  1.6466322352017700e-03  1.8334687113287624e-03  2.0100272294108642e-03  2.1740264676987707e-03  2.3230377130451017e-03  2.4544784557135775e-03  2.5656057596254471e-03  2.6535094012082945e-03  2.7151047697069213e-03  2.7471255220340874e-03  2.7461159834982476e-03  2.7084232912730822e-03  2.6301892558750995e-03  2.5073419955348041e-03  2.3355871000563591e-03  2.1103991932621305e-03  1.8270106094252804e-03  1.4804094013781547e-03  1.0653010377785562e-03  5.7620409197928907e-04  7.0442860544394187e-06  -1.1646553385110292e-06  -2.9018699210446201e-04  -5.6491970076895858e-04  -8.2493068336307758e-04  -1.0698234923780660e-03  -1.2992114634179078e-03  -1.5127266066085675e-03  -1.7100192769289081e-03  -1.8907604110319249e-03  -2.0546431755506158e-03  -2.2013848757689181e-03  -2.3307289008373143e-03  -2.4424467692397826e-03  -2.5363402612943154e-03  -2.6122436461945247e-03  -2.6700260056673154e-03  -2.7095936578993346e-03  -2.7308926850869979e-03  -2.7339115681755967e-03  -2.7186839324285336e-03  -2.6852914075849170e-03  -2.6338666064709550e-03  -2.5645962260493599e-03  -2.4777242750039417e-03  -2.3735554320802148e-03  -2.2524585395287712e-03  -2.1148702361194149e-03  -1.9612987343326873e-03  -1.7923277464664406e-03  -1.6086205645319666e-03  -1.4109242989589672e-03  -1.2000742812755814e-03  -9.7699863607469983e-04  -7.4272302773579243e-04  -4.9837558752773231e-04  -2.4519202688090758e-04  1.5479057219218081e-05  2.8217067859493262e-04  5.5329175369262255e-04  8.2712118238195979e-04  1.1018017110735979e-03  1.3753335713079539e-03  1.6455678867734727e-03  1.9101998415185944e-03  2.1667616019092092e-03  2.4126149846864196e-03  2.6449438632578145e-03  2.8607463041372288e-03  3.0568264252216391e-03  3.2297859673653252e-03  3.3760155704610165e-03  3.4916857450266498e-03  3.5727375299129298e-03  3.6148728270114085e-03  3.6135444015703714e-03  3.5639455439907754e-03  3.4609993605481016e-03  3.2993477652857430e-03  3.0733398527263778e-03  2.7770207951725236e-03  2.4041169421361360e-03  1.9480331995912782e-03  1.4018026277044155e-03  7.5821235640809159e-04  9.2693974553853698e-06  -1.4691767809321129e-06  -3.6606194628785823e-04  -7.1262879059865261e-04  -1.0406246312968008e-03  -1.3495493619914670e-03  -1.6389152174086747e-03  -1.9082579896501459e-03  -2.1571366122981814e-03  -2.3851359820989170e-03  -2.5918690382389707e-03  -2.7769791700733063e-03  -2.9401426709505653e-03  -3.0810713185048261e-03  -3.1995150647376484e-03  -3.2952648453613209e-03  -3.3681555110204203e-03  -3.4180688850003311e-03  -3.4449369516536261e-03  -3.4487451800424328e-03  -3.4295359873902733e-03  -3.3874123470836945e-03  -3.3225415460997141e-03  -3.2351590968856129e-03  -3.1255728088582539e-03  -2.9941670248489838e-03  -2.8414070279750036e-03  -2.6678436245759006e-03  -2.4741179090241880e-03  -2.2609662163877308e-03  -2.0292252690921799e-03  -1.7798375239156650e-03  -1.5138567258327262e-03  -1.2324536754073189e-03  -9.3692221663463013e-04  -6.2868545232874198e-04  -3.0930219435636131e-04  1.9526343772973591e-05  3.5594960423705876e-04  6.9796048420301044e-04  1.0433878689356762e-03  1.3898888903062748e-03  1.7349409020664844e-03  2.0758331630006534e-03  2.4096582188323280e-03  2.7333029734898642e-03  3.0434394400835072e-03  3.3365151616752799e-03  3.6087432916411403e-03  3.8560923231383865e-03  4.0742754569108161e-03  4.2587395963376131e-03  4.4046539583756008e-03  4.5068982885498529e-03  4.5600506684947435e-03  4.5583749016639228e-03  4.4958074720122428e-03  4.3659440345673569e-03  4.1620255290549029e-03  3.8769235123982211e-03  3.5031261530592203e-03  3.0327194342794350e-03  2.4573838483530194e-03  1.7683308151641844e-03  9.5646152160107215e-04  1.1693059273297729e-05  -1.7943357717120015e-06  -4.4707897965191461e-04  -8.7034819076798546e-04  -1.2709362534976726e-03  -1.6482323775454224e-03  -2.0016408450994846e-03  -2.3305947094949681e-03  -2.6345552872492047e-03  -2.9130156042417995e-03  -3.1655029351691324e-03  -3.3915817441486909e-03  -3.5908566816227720e-03  -3.7629757357194242e-03  -3.9076335177028465e-03  -4.0245746930808908e-03  -4.1135975615651721e-03  -4.1745577915127952e-03  -4.2073723140169869e-03  -4.2120233821400952e-03  -4.1885628008993753e-03  -4.1371163337943825e-03  -4.0578882918316413e-03  -3.9511663111852363e-03  -3.8173263258038563e-03  -3.6568377414694466e-03  -3.4702688180006571e-03  -3.2582922664881565e-03  -3.0216910686560994e-03  -2.7613645256498527e-03  -2.4783345437606502e-03  -2.1737521648183648e-03  -1.8489043492143661e-03  -1.5052210197356874e-03  -1.1442823746375299e-03  -7.6782647862315987e-04  -3.7775714064628579e-04  2.3847912291102830e-05  4.3472855591284332e-04  8.5243347430620758e-04  1.2743110404513473e-03  1.6974998613762022e-03  2.1189189773890174e-03  2.5352577045384744e-03  2.9429651091548788e-03  3.3382391029989291e-03  3.7170151472398130e-03  4.0749545531414029e-03  4.4074323670064931e-03  4.7095248265662370e-03  4.9759963756657736e-03  5.2012862236976831e-03  5.3794944359176391e-03  5.5043675401780798e-03  5.5692836360354912e-03  5.5672369886634009e-03  5.4908221012303464e-03  5.3322172155547982e-03  5.0831673523969428e-03  4.7349663977143417e-03  4.2784399972977385e-03  3.7039225997840099e-03  3.0012534195042366e-03  2.1596987826868210e-03  1.1681461219245721e-03  1.4280973759227208e-05  -2.1359989560771359e-06  -5.3220822009608952e-04  -1.0360730042362650e-03  -1.5129378753060618e-03  -1.9620757410746649e-03  -2.3827774518044150e-03  -2.7743681073167941e-03  -3.1362064522847946e-03  -3.4676889786063965e-03  -3.7682529483938658e-03  -4.0373798945011414e-03  -4.2745991880705101e-03  -4.4794917899479945e-03  -4.6516941617210355e-03  -4.7909023501486302e-03  -4.8968762487882232e-03  -4.9694440435193461e-03  -5.0085068481157784e-03  -5.0140435364062780e-03  -4.9861157777010444e-03  -4.9248732823760745e-03  -4.8305592647048300e-03  -4.7035161302449377e-03  -4.5441913952897969e-03  -4.3531438461339063e-03  -4.1310499461114604e-03  -3.8787104986155565e-03  -3.5970575745355449e-03  -3.2871617128076842e-03  -2.9502394030162366e-03  -2.5876608592514797e-03  -2.2009580947012319e-03  -1.7918333067135609e-03  -1.3621675823669024e-03  -9.1402993486256964e-04  -4.4968668135535140e-04  2.8388826857769028e-05  5.1750611056395658e-04  1.0147470937176954e-03  1.5169552475088621e-03  2.0207243351986577e-03  2.5223867451623365e-03  3.0180013992279421e-03  3.5033412230378908e-03  3.9738801647808764e-03  4.4247797482662226e-03  4.8508751459215380e-03  5.2466607568829871e-03  5.6062752749340052e-03  5.9234862306344485e-03  6.1916739915148433e-03  6.4038152038274751e-03  6.5524656586373334e-03  6.6297425655295452e-03  6.6273062130273530e-03  6.5363410081610580e-03  6.3475358354492840e-03  6.0510638678616252e-03  5.6365612420586240e-03  5.0931066959854733e-03  4.4091942404938366e-03  3.5727283536262006e-03  2.5709315402174964e-03  1.3905752657547405e-03  1.7000243868642185e-05  -2.4902088403676887e-06  -6.2046361319864185e-04  -1.2078836357499474e-03  -1.7638263850038546e-03  -2.2874441958935375e-03  -2.7779103212537200e-03  -3.2344379430749976e-03  -3.6562794675000570e-03  -4.0427313074868198e-03  -4.3931374070884394e-03  -4.7068933224653029e-03  -4.9834503810288790e-03  -5.2223200549471578e-03  -5.4230785207418910e-03  -5.5853714210325990e-03  -5.7089188328625926e-03  -5.7935204504163847e-03  -5.8390609893028932e-03  -5.8455158200268710e-03  -5.8129568384341461e-03  -5.7415585811645634e-03  -5.6316045943799837e-03  -5.4834940642830773e-03  -5.2977487181855125e-03  -5.0750200051577930e-03  -4.8160965655389904e-03  -4.5219119988763653e-03  -4.1935529401321107e-03  -3.8322674542901783e-03  -3.4394737597876171e-03  -3.0167692915011885e-03  -2.5659401143355784e-03  -2.0889706987697208e-03  -1.5880540700601213e-03  -1.0656023431241521e-03  -5.2425765548664920e-04  3.3096488988405183e-05  6.0332345248337413e-04  1.1830212582629156e-03  1.7685099345113213e-03  2.3558183927382356e-03  2.9406708260982938e-03  3.5184726125831317e-03  4.0842957076055080e-03  4.6328635100601956e-03  5.1585351855127802e-03  5.6552894296990558e-03  6.1167076550518677e-03  6.5359565824794803e-03  6.9057702201417680e-03  7.2184312104255884e-03  7.4657515258709974e-03  7.6390524939782146e-03  7.7291441313953792e-03  7.7263037631147748e-03  7.6202539178646129e-03  7.4001394300438061e-03  7.0545039027683836e-03  6.5712648468314577e-03  5.9376899416466187e-03  5.1403651749485930e-03  4.1651892402763827e-03  2.9972657669808571e-03  1.6211725499479729e-03  1.9819372214720815e-05  -2.8531838271376347e-06  -7.1090293098723849e-04  -1.3839458089174336e-03  -2.0209232587488127e-03  -2.6208640589334021e-03  -3.1828209548659630e-03  -3.7058924412418470e-03  -4.1892219542747364e-03  -4.6320033514827864e-03  -5.0334849496635079e-03  -5.3929742007543880e-03  -5.7098424572130310e-03  -5.9835299830058560e-03  -6.2135511778135463e-03  -6.3995000328496542e-03  -6.5410558233716483e-03  -6.6379890468354534e-03  -6.6901676149113175e-03  -6.6975633080934667e-03  -6.6602585018277595e-03  -6.5784531733589363e-03  -6.4524721987700125e-03  -6.2827729499730887e-03  -6.0699532016838002e-03  -5.8147593587295583e-03  -5.5180950143236505e-03  -5.1810298502661329e-03  -4.8048088903454916e-03  -4.3908621185527602e-03  -3.9408144740451104e-03  -3.456496235162729