<?xml version="1.0"?>
<VTKFile type="UnstructuredGrid"  version="0.1"  >
<UnstructuredGrid>
<Piece  NumberOfPoints="1089" NumberOfCells="1024">
<Points>
<DataArray  type="Float64"  NumberOfComponents="3"  format="ascii">0 0 0  0.03125 0 0  0.0625 0 0  0.09375 0 0  0.125 0 0  0.15625 0 0  0.1875 0 0  0.21875 0 0  0.25 0 0  0.28125 0 0  0.3125 0 0  0.34375 0 0  0.375 0 0  0.40625 0 0  0.4375 0 0  0.46875 0 0  0.5 0 0  0.53125 0 0  0.5625 0 0  0.59375 0 0  0.625 0 0  0.65625 0 0  0.6875 0 0  0.71875 0 0  0.75 0 0  0.78125 0 0  0.8125 0 0  0.84375 0 0  0.875 0 0  0.90625 0 0  0.9375 0 0  0.96875 0 0  1 0 0  0 0.03125 0  0.03125 0.03125 0  0.0625 0.03125 0  0.09375 0.03125 0  0.125 0.03125 0  0.15625 0.03125 0  0.1875 0.03125 0  0.21875 0.03125 0  0.25 0.03125 0  0.28125 0.03125 0  0.3125 0.03125 0  0.34375 0.03125 0  0.375 0.03125 0  0.40625 0.03125 0  0.4375 0.03125 0  0.46875 0.03125 0  0.5 0.03125 0  0.53125 0.03125 0  0.5625 0.03125 0  0.59375 0.03125 0  0.625 0.03125 0  0.65625 0.03125 0  0.6875 0.03125 0  0.71875 0.03125 0  0.75 0.03125 0  0.78125 0.03125 0  0.8125 0.03125 0  0.84375 0.03125 0  0.875 0.03125 0  0.90625 0.03125 0  0.9375 0.03125 0  0.96875 0.03125 0  1 0.03125 0  0 0.0625 0  0.03125 0.0625 0  0.0625 0.0625 0  0.09375 0.0625 0  0.125 0.0625 0  0.15625 0.0625 0  0.1875 0.0625 0  0.21875 0.0625 0  0.25 0.0625 0  0.28125 0.0625 0  0.3125 0.0625 0  0.34375 0.0625 0  0.375 0.0625 0  0.40625 0.0625 0  0.4375 0.0625 0  0.46875 0.0625 0  0.5 0.0625 0  0.53125 0.0625 0  0.5625 0.0625 0  0.59375 0.0625 0  0.625 0.0625 0  0.65625 0.0625 0  0.6875 0.0625 0  0.71875 0.0625 0  0.75 0.0625 0  0.78125 0.0625 0  0.8125 0.0625 0  0.84375 0.0625 0  0.875 0.0625 0  0.90625 0.0625 0  0.9375 0.0625 0  0.96875 0.0625 0  1 0.0625 0  0 0.09375 0  0.03125 0.09375 0  0.0625 0.09375 0  0.09375 0.09375 0  0.125 0.09375 0  0.15625 0.09375 0  0.1875 0.09375 0  0.21875 0.09375 0  0.25 0.09375 0  0.28125 0.09375 0  0.3125 0.09375 0  0.34375 0.09375 0  0.375 0.09375 0  0.40625 0.09375 0  0.4375 0.09375 0  0.46875 0.09375 0  0.5 0.09375 0  0.53125 0.09375 0  0.5625 0.09375 0  0.59375 0.09375 0  0.625 0.09375 0  0.65625 0.09375 0  0.6875 0.09375 0  0.71875 0.09375 0  0.75 0.09375 0  0.78125 0.09375 0  0.8125 0.09375 0  0.84375 0.09375 0  0.875 0.09375 0  0.90625 0.09375 0  0.9375 0.09375 0  0.96875 0.09375 0  1 0.09375 0  0 0.125 0  0.03125 0.125 0  0.0625 0.125 0  0.09375 0.125 0  0.125 0.125 0  0.15625 0.125 0  0.1875 0.125 0  0.21875 0.125 0  0.25 0.125 0  0.28125 0.125 0  0.3125 0.125 0  0.34375 0.125 0  0.375 0.125 0  0.40625 0.125 0  0.4375 0.125 0  0.46875 0.125 0  0.5 0.125 0  0.53125 0.125 0  0.5625 0.125 0  0.59375 0.125 0  0.625 0.125 0  0.65625 0.125 0  0.6875 0.125 0  0.71875 0.125 0  0.75 0.125 0  0.78125 0.125 0  0.8125 0.125 0  0.84375 0.125 0  0.875 0.125 0  0.90625 0.125 0  0.9375 0.125 0  0.96875 0.125 0  1 0.125 0  0 0.15625 0  0.03125 0.15625 0  0.0625 0.15625 0  0.09375 0.15625 0  0.125 0.15625 0  0.15625 0.15625 0  0.1875 0.15625 0  0.21875 0.15625 0  0.25 0.15625 0  0.28125 0.15625 0  0.3125 0.15625 0  0.34375 0.15625 0  0.375 0.15625 0  0.40625 0.15625 0  0.4375 0.15625 0  0.46875 0.15625 0  0.5 0.15625 0  0.53125 0.15625 0  0.5625 0.15625 0  0.59375 0.15625 0  0.625 0.15625 0  0.65625 0.15625 0  0.6875 0.15625 0  0.71875 0.15625 0  0.75 0.15625 0  0.78125 0.15625 0  0.8125 0.15625 0  0.84375 0.15625 0  0.875 0.15625 0  0.90625 0.15625 0  0.9375 0.15625 0  0.96875 0.15625 0  1 0.15625 0  0 0.1875 0  0.03125 0.1875 0  0.0625 0.1875 0  0.09375 0.1875 0  0.125 0.1875 0  0.15625 0.1875 0  0.1875 0.1875 0  0.21875 0.1875 0  0.25 0.1875 0  0.28125 0.1875 0  0.3125 0.1875 0  0.34375 0.1875 0  0.375 0.1875 0  0.40625 0.1875 0  0.4375 0.1875 0  0.46875 0.1875 0  0.5 0.1875 0  0.53125 0.1875 0  0.5625 0.1875 0  0.59375 0.1875 0  0.625 0.1875 0  0.65625 0.1875 0  0.6875 0.1875 0  0.71875 0.1875 0  0.75 0.1875 0  0.78125 0.1875 0  0.8125 0.1875 0  0.84375 0.1875 0  0.875 0.1875 0  0.90625 0.1875 0  0.9375 0.1875 0  0.96875 0.1875 0  1 0.1875 0  0 0.21875 0  0.03125 0.21875 0  0.0625 0.21875 0  0.09375 0.21875 0  0.125 0.21875 0  0.15625 0.21875 0  0.1875 0.21875 0  0.21875 0.21875 0  0.25 0.21875 0  0.28125 0.21875 0  0.3125 0.21875 0  0.34375 0.21875 0  0.375 0.21875 0  0.40625 0.21875 0  0.4375 0.21875 0  0.46875 0.21875 0  0.5 0.21875 0  0.53125 0.21875 0  0.5625 0.21875 0  0.59375 0.21875 0  0.625 0.21875 0  0.65625 0.21875 0  0.6875 0.21875 0  0.71875 0.21875 0  0.75 0.21875 0  0.78125 0.21875 0  0.8125 0.21875 0  0.84375 0.21875 0  0.875 0.21875 0  0.90625 0.21875 0  0.9375 0.21875 0  0.96875 0.21875 0  1 0.21875 0  0 0.25 0  0.03125 0.25 0  0.0625 0.25 0  0.09375 0.25 0  0.125 0.25 0  0.15625 0.25 0  0.1875 0.25 0  0.21875 0.25 0  0.25 0.25 0  0.28125 0.25 0  0.3125 0.25 0  0.34375 0.25 0  0.375 0.25 0  0.40625 0.25 0  0.4375 0.25 0  0.46875 0.25 0  0.5 0.25 0  0.53125 0.25 0  0.5625 0.25 0  0.59375 0.25 0  0.625 0.25 0  0.65625 0.25 0  0.6875 0.25 0  0.71875 0.25 0  0.75 0.25 0  0.78125 0.25 0  0.8125 0.25 0  0.84375 0.25 0  0.875 0.25 0  0.90625 0.25 0  0.9375 0.25 0  0.96875 0.25 0  1 0.25 0  0 0.28125 0  0.03125 0.28125 0  0.0625 0.28125 0  0.09375 0.28125 0  0.125 0.28125 0  0.15625 0.28125 0  0.1875 0.28125 0  0.21875 0.28125 0  0.25 0.28125 0  0.28125 0.28125 0  0.3125 0.28125 0  0.34375 0.28125 0  0.375 0.28125 0  0.40625 0.28125 0  0.4375 0.28125 0  0.46875 0.28125 0  0.5 0.28125 0  0.53125 0.28125 0  0.5625 0.28125 0  0.59375 0.28125 0  0.625 0.28125 0  0.65625 0.28125 0  0.6875 0.28125 0  0.71875 0.28125 0  0.75 0.28125 0  0.78125 0.28125 0  0.8125 0.28125 0  0.84375 0.28125 0  0.875 0.28125 0  0.90625 0.28125 0  0.9375 0.28125 0  0.96875 0.28125 0  1 0.28125 0  0 0.3125 0  0.03125 0.3125 0  0.0625 0.3125 0  0.09375 0.3125 0  0.125 0.3125 0  0.15625 0.3125 0  0.1875 0.3125 0  0.21875 0.3125 0  0.25 0.3125 0  0.28125 0.3125 0  0.3125 0.3125 0  0.34375 0.3125 0  0.375 0.3125 0  0.40625 0.3125 0  0.4375 0.3125 0  0.46875 0.3125 0  0.5 0.3125 0  0.53125 0.3125 0  0.5625 0.3125 0  0.59375 0.3125 0  0.625 0.3125 0  0.65625 0.3125 0  0.6875 0.3125 0  0.71875 0.3125 0  0.75 0.3125 0  0.78125 0.3125 0  0.8125 0.3125 0  0.84375 0.3125 0  0.875 0.3125 0  0.90625 0.3125 0  0.9375 0.3125 0  0.96875 0.3125 0  1 0.3125 0  0 0.34375 0  0.03125 0.34375 0  0.0625 0.34375 0  0.09375 0.34375 0  0.125 0.34375 0  0.15625 0.34375 0  0.1875 0.34375 0  0.21875 0.34375 0  0.25 0.34375 0  0.28125 0.34375 0  0.3125 0.34375 0  0.34375 0.34375 0  0.375 0.34375 0  0.40625 0.34375 0  0.4375 0.34375 0  0.46875 0.34375 0  0.5 0.34375 0  0.53125 0.34375 0  0.5625 0.34375 0  0.59375 0.34375 0  0.625 0.34375 0  0.65625 0.34375 0  0.6875 0.34375 0  0.71875 0.34375 0  0.75 0.34375 0  0.78125 0.34375 0  0.8125 0.34375 0  0.84375 0.34375 0  0.875 0.34375 0  0.90625 0.34375 0  0.9375 0.34375 0  0.96875 0.34375 0  1 0.34375 0  0 0.375 0  0.03125 0.375 0  0.0625 0.375 0  0.09375 0.375 0  0.125 0.375 0  0.15625 0.375 0  0.1875 0.375 0  0.21875 0.375 0  0.25 0.375 0  0.28125 0.375 0  0.3125 0.375 0  0.34375 0.375 0  0.375 0.375 0  0.40625 0.375 0  0.4375 0.375 0  0.46875 0.375 0  0.5 0.375 0  0.53125 0.375 0  0.5625 0.375 0  0.59375 0.375 0  0.625 0.375 0  0.65625 0.375 0  0.6875 0.375 0  0.71875 0.375 0  0.75 0.375 0  0.78125 0.375 0  0.8125 0.375 0  0.84375 0.375 0  0.875 0.375 0  0.90625 0.375 0  0.9375 0.375 0  0.96875 0.375 0  1 0.375 0  0 0.40625 0  0.03125 0.40625 0  0.0625 0.40625 0  0.09375 0.40625 0  0.125 0.40625 0  0.15625 0.40625 0  0.1875 0.40625 0  0.21875 0.40625 0  0.25 0.40625 0  0.28125 0.40625 0  0.3125 0.40625 0  0.34375 0.40625 0  0.375 0.40625 0  0.40625 0.40625 0  0.4375 0.40625 0  0.46875 0.40625 0  0.5 0.40625 0  0.53125 0.40625 0  0.5625 0.40625 0  0.59375 0.40625 0  0.625 0.40625 0  0.65625 0.40625 0  0.6875 0.40625 0  0.71875 0.40625 0  0.75 0.40625 0  0.78125 0.40625 0  0.8125 0.40625 0  0.84375 0.40625 0  0.875 0.40625 0  0.90625 0.40625 0  0.9375 0.40625 0  0.96875 0.40625 0  1 0.40625 0  0 0.4375 0  0.03125 0.4375 0  0.0625 0.4375 0  0.09375 0.4375 0  0.125 0.4375 0  0.15625 0.4375 0  0.1875 0.4375 0  0.21875 0.4375 0  0.25 0.4375 0  0.28125 0.4375 0  0.3125 0.4375 0  0.34375 0.4375 0  0.375 0.4375 0  0.40625 0.4375 0  0.4375 0.4375 0  0.46875 0.4375 0  0.5 0.4375 0  0.53125 0.4375 0  0.5625 0.4375 0  0.59375 0.4375 0  0.625 0.4375 0  0.65625 0.4375 0  0.6875 0.4375 0  0.71875 0.4375 0  0.75 0.4375 0  0.78125 0.4375 0  0.8125 0.4375 0  0.84375 0.4375 0  0.875 0.4375 0  0.90625 0.4375 0  0.9375 0.4375 0  0.96875 0.4375 0  1 0.4375 0  0 0.46875 0  0.03125 0.46875 0  0.0625 0.46875 0  0.09375 0.46875 0  0.125 0.46875 0  0.15625 0.46875 0  0.1875 0.46875 0  0.21875 0.46875 0  0.25 0.46875 0  0.28125 0.46875 0  0.3125 0.46875 0  0.34375 0.46875 0  0.375 0.46875 0  0.40625 0.46875 0  0.4375 0.46875 0  0.46875 0.46875 0  0.5 0.46875 0  0.53125 0.46875 0  0.5625 0.46875 0  0.59375 0.46875 0  0.625 0.46875 0  0.65625 0.46875 0  0.6875 0.46875 0  0.71875 0.46875 0  0.75 0.46875 0  0.78125 0.46875 0  0.8125 0.46875 0  0.84375 0.46875 0  0.875 0.46875 0  0.90625 0.46875 0  0.9375 0.46875 0  0.96875 0.46875 0  1 0.46875 0  0 0.5 0  0.03125 0.5 0  0.0625 0.5 0  0.09375 0.5 0  0.125 0.5 0  0.15625 0.5 0  0.1875 0.5 0  0.21875 0.5 0  0.25 0.5 0  0.28125 0.5 0  0.3125 0.5 0  0.34375 0.5 0  0.375 0.5 0  0.40625 0.5 0  0.4375 0.5 0  0.46875 0.5 0  0.5 0.5 0  0.53125 0.5 0  0.5625 0.5 0  0.59375 0.5 0  0.625 0.5 0  0.65625 0.5 0  0.6875 0.5 0  0.71875 0.5 0  0.75 0.5 0  0.78125 0.5 0  0.8125 0.5 0  0.84375 0.5 0  0.875 0.5 0  0.90625 0.5 0  0.9375 0.5 0  0.96875 0.5 0  1 0.5 0  0 0.53125 0  0.03125 0.53125 0  0.0625 0.53125 0  0.09375 0.53125 0  0.125 0.53125 0  0.15625 0.53125 0  0.1875 0.53125 0  0.21875 0.53125 0  0.25 0.53125 0  0.28125 0.53125 0  0.3125 0.53125 0  0.34375 0.53125 0  0.375 0.53125 0  0.40625 0.53125 0  0.4375 0.53125 0  0.46875 0.53125 0  0.5 0.53125 0  0.53125 0.53125 0  0.5625 0.53125 0  0.59375 0.53125 0  0.625 0.53125 0  0.65625 0.53125 0  0.6875 0.53125 0  0.71875 0.53125 0  0.75 0.53125 0  0.78125 0.531
[...]
<PointData  Scalars="v_sol"> 
<DataArray  type="Float64"  Name="v_sol"  format="ascii">-6.9458244640434090e-06  3.4307780611487213e-04  7.0896417124376903e-04  7.8545032825798550e-04  7.7705994263953324e-04  -2.0782927375055646e-04  3.3715900306769604e-03  -6.7738068473939897e-04  -3.9257231398813795e-04  -4.3890876281233067e-03  -6.6139453062701989e-03  -9.1103653316874176e-03  -9.1559270408431565e-03  -7.1303515194726065e-03  -3.7421666123411842e-03  -7.3230865661088511e-04  2.1924526225012759e-03  4.0912469446700650e-03  6.0424027312755537e-03  6.9301531569241973e-03  8.4269972825023725e-03  7.7037533141926734e-03  6.9662967468582682e-03  4.1844536351797086e-03  2.3132516785944225e-03  -1.9938957275701037e-04  -4.5338004060156709e-03  -4.8342348988937205e-03  -2.6715623412265671e-03  -4.2541557384446376e-04  -1.3380567345394555e-04  2.8460104538489412e-05  1.7601050016129993e-04  3.2760944447634091e-04  -1.8109857225659010e-03  -4.1573052876661635e-03  -2.8270456775835152e-03  -2.7743529155839458e-03  -2.3522472726286072e-03  -5.2274358796214207e-03  1.5158105962133872e-02  2.6498064011356936e-04  1.7927393747722744e-03  2.3396253272789748e-02  3.9704856921986505e-02  4.5873575080341976e-02  4.1113330422057837e-02  3.0631617050875935e-02  1.6135126496730535e-02  -2.6416255370211218e-04  -1.9051618044495261e-02  -3.8200306218501033e-02  -5.5170557474077696e-02  -6.2507336954449558e-02  -5.5415398142327356e-02  -3.5171631978912106e-02  -1.0680072188544842e-02  3.3532348205303816e-03  1.5914793665918543e-02  2.7521174718390943e-02  2.2837940767781589e-02  1.0004941032386234e-02  2.4733110945653483e-03  2.7773840822390203e-04  -7.7443532265059317e-04  -4.6526564091270764e-04  1.5949995289561627e-04  -8.3339143557364919e-03  -1.3220095240133775e-02  -2.5020967119336367e-03  -1.5833531157412131e-03  -5.5805453730536480e-03  3.8409436031936996e-04  2.4684123280843233e-02  5.9704607092159155e-02  9.7265269528194059e-02  1.1738837453913430e-01  1.1683319392399215e-01  1.0044473761716076e-01  7.6665986494194135e-02  4.9825723931052210e-02  2.2644208593773356e-02  -6.0431497204810362e-03  -3.6662652808225830e-02  -7.0909428301658431e-02  -1.0665547702248238e-01  -1.3762384982290912e-01  -1.4905841770200010e-01  -1.2749557152275301e-01  -7.8160872426153133e-02  -3.0154308473651598e-02  -1.0328289498590722e-02  1.7313186708636276e-02  4.3368072230929179e-02  3.6487318559497467e-02  1.7495975121499280e-02  5.1341958538945638e-03  -1.1190795862027533e-03  -5.7543226844630475e-04  5.1760995838771840e-04  -2.1966095499290877e-02  -1.9254991762746872e-02  -4.2324696769944353e-03  1.1582255741032674e-02  1.7267914607470645e-02  5.5184083245384319e-02  1.1234020418834827e-01  1.6774227756498988e-01  1.8386360039158930e-01  1.7208775308377519e-01  1.4280492950643739e-01  1.1212795120258520e-01  7.9588158461131875e-02  5.1127742689878380e-02  2.1047210598928799e-02  -6.8113278900235295e-03  -3.8672466074329864e-02  -7.1258132597916440e-02  -1.1084289673145749e-01  -1.5348868118910275e-01  -1.9807524696906673e-01  -2.2161407238080447e-01  -2.0026975149129639e-01  -1.2622287215361871e-01  -4.9379868884759245e-02  -1.0741303076191191e-02  1.8862559947007796e-02  4.0407137112834488e-02  2.9571515338279310e-02  1.3979475358880345e-02  3.5419180478454024e-03  -1.1106313896652620e-03  -3.4333645462880937e-03  -3.6675044894811333e-02  -1.6958158684053464e-02  9.4374153303142805e-03  3.3412577350578031e-02  8.0804697825694854e-02  1.6313645935258431e-01  2.2922179006517104e-01  2.3498395048649470e-01  2.0981008651645111e-01  1.7222711639298002e-01  1.3897800577454994e-01  1.0658678068188933e-01  7.8441608044106145e-02  4.8502013556847870e-02  2.0578060195277633e-02  -1.0083924249897361e-02  -3.9586261966544849e-02  -7.2092817854733718e-02  -1.0356253252055517e-01  -1.3887030533257486e-01  -1.7743840224811361e-01  -2.2655107854509501e-01  -2.6970827194565594e-01  -2.6716391432170516e-01  -1.8006203947422900e-01  -6.3720485804744181e-02  -3.8825125342448262e-03  2.1183299992409223e-02  3.1348896015664297e-02  2.0052606196368665e-02  8.9997734240715114e-03  7.3459087873020061e-04  -1.1636415831890354e-02  -4.5818062514767416e-02  9.3663337884456149e-04  3.7816340946345700e-02  9.2913421357197587e-02  2.0002222358485464e-01  2.7362888744328717e-01  2.6948285750610357e-01  2.3879486322601040e-01  1.9990342609027098e-01  1.6983028562007493e-01  1.3958787198595998e-01  1.1206665505965421e-01  8.1200839854279921e-02  5.2216370133359807e-02  2.0743760639913802e-02  -9.2216632139159749e-03  -4.2033253610528232e-02  -7.3965441983840419e-02  -1.0870540211571710e-01  -1.4071033266598090e-01  -1.7226081305910299e-01  -2.0077150489864079e-01  -2.4270657150517494e-01  -2.9713560503874487e-01  -3.1975753268049556e-01  -2.2680530848361538e-01  -7.1819301153438278e-02  5.1970345862996639e-03  2.2340919635636489e-02  2.4866859152050093e-02  1.5832176431541767e-02  2.9514839370068849e-04  -2.2456502482906746e-02  -3.9262752298085631e-02  2.6579846715478292e-02  8.9285223445258008e-02  2.1272591304337063e-01  3.0183196435840853e-01  3.0072327720500408e-01  2.7104741489521139e-01  2.3152254996037203e-01  2.0332451868595311e-01  1.7372347370091218e-01  1.4410052568262183e-01  1.1245029965986823e-01  8.2318026322886748e-02  5.1692159688349476e-02  2.1484573148343789e-02  -9.4872709997810695e-03  -4.0517703431460855e-02  -7.2582680320567278e-02  -1.0486493090415736e-01  -1.3929048874592226e-01  -1.7368682971944710e-01  -2.0698023506065263e-01  -2.3120420223289126e-01  -2.6287183017445065e-01  -3.1986443648121793e-01  -3.6073310004995085e-01  -2.5313089987282289e-01  -6.0431771422806521e-02  1.5756280635631992e-02  2.6021868770273165e-02  1.9847616251755410e-02  3.4037015457299333e-03  -2.8188385263780345e-02  -1.9877335931776586e-02  6.9597228988996035e-02  1.9429193638295919e-01  3.1231047495754405e-01  3.3167885239934852e-01  3.0419609411738041e-01  2.6237216152679999e-01  2.3471777172924840e-01  2.0688808156873054e-01  1.7478261377589385e-01  1.4521472711409111e-01  1.1429501030284651e-01  8.5328222846174043e-02  5.3373350197803232e-02  2.3589424924485368e-02  -9.0802803027696596e-03  -3.9723181472707363e-02  -7.3063912914095461e-02  -1.0427810451770124e-01  -1.3702407456499785e-01  -1.6804838145705828e-01  -2.0218861639716412e-01  -2.3683348220986489e-01  -2.6297188321740822e-01  -2.8830967637360438e-01  -3.4863081623476194e-01  -3.9403710917288515e-01  -2.4383519016266844e-01  -2.1899697987488365e-02  2.1876221158035985e-02  2.9472966929057882e-02  -1.7840676986683363e-04  -2.7809874955199154e-02  1.3642113977376913e-02  1.5106376707053162e-01  2.9333710984610717e-01  3.5780204353112355e-01  3.3576262659131301e-01  2.9467996433991595e-01  2.6633561366230768e-01  2.4174835807313338e-01  2.0612797430225113e-01  1.7936991351123427e-01  1.4684592136002869e-01  1.1827907280447925e-01  8.4884065793603108e-02  5.6128357178807528e-02  2.3135248731760382e-02  -6.1572425921698473e-03  -3.9555655563355857e-02  -6.9554346652465598e-02  -1.0379991882104540e-01  -1.3474920923021505e-01  -1.6932952553434802e-01  -1.9858287855073281e-01  -2.3216098104888894e-01  -2.6514319862794711e-01  -2.9334677434597206e-01  -3.1588653942519246e-01  -3.8848496971927010e-01  -4.1127764336323047e-01  -1.8136979331505926e-01  2.9836033821635698e-02  1.9378853073909089e-02  9.8931531655028979e-03  -2.1244763315282578e-02  7.4551657547799174e-02  2.3897743568682733e-01  3.5931105728424906e-01  3.6930758664892915e-01  3.2803099546487924e-01  2.9990243243197223e-01  2.7275879426060912e-01  2.3888053691842176e-01  2.1091338605416457e-01  1.8101887131316521e-01  1.4900012220566369e-01  1.1922827317814601e-01  8.7995227436484413e-02  5.7942643647558106e-02  2.5598222193679680e-02  -5.0128459774281811e-03  -3.7720878341355242e-02  -6.8806737941674329e-02  -1.0148457946436475e-01  -1.3279461587296651e-01  -1.6543148035418934e-01  -1.9795873708233552e-01  -2.2964512256978620e-01  -2.6189343046417951e-01  -2.9642720212991686e-01  -3.2039055588747861e-01  -3.4886916012468394e-01  -4.3851699392939048e-01  -3.8186533276962614e-01  -5.7129085703957187e-02  3.6229057526323154e-02  9.8456809129352941e-03  1.0501995486029275e-03  1.4698183645510415e-01  3.1429482760855676e-01  3.9296400033263140e-01  3.6622246182842277e-01  3.3192425861874730e-01  3.0366773633442068e-01  2.7294262082353005e-01  2.4459484616878580e-01  2.1463803717064603e-01  1.8198020126267950e-01  1.5295317437304809e-01  1.2166257696517951e-01  9.0579097264096645e-02  5.8705340850984125e-02  2.7982559473269931e-02  -3.8335299432768026e-03  -3.5044978804917463e-02  -6.7344069270878951e-02  -9.9087415298272682e-02  -1.3190814661837966e-01  -1.6375269219578373e-01  -1.9631500399598523e-01  -2.2808588553826578e-01  -2.5937009321194132e-01  -2.9266928040670720e-01  -3.2819578772608438e-01  -3.4507390176008146e-01  -3.9604281188415424e-01  -4.8091542981616997e-01  -2.4973722015922323e-01  6.7755265437019985e-02  -2.5995388253913350e-02  2.7809316809851617e-02  2.2046468733872771e-01  3.6980321432190394e-01  4.0692047943082155e-01  3.6690845246150250e-01  3.3639988903722584e-01  3.0803325603704029e-01  2.7798359336243289e-01  2.4684267180059241e-01  2.1569497072765922e-01  1.8594436213195448e-01  1.5530054060738058e-01  1.2285525252852690e-01  9.2743380027794864e-02  6.1465703533435737e-02  3.0426437100293201e-02  -1.7405382137568005e-03  -3.3081910540364877e-02  -6.5368736929683147e-02  -9.6926875058839915e-02  -1.2929066117616200e-01  -1.6118184976229713e-01  -1.9394104805981022e-01  -2.2674251550187988e-01  -2.5955366241165234e-01  -2.8939610773652114e-01  -3.2580041006447558e-01  -3.5708057827398493e-01  -3.7207347156200249e-01  -4.7155269403685696e-01  -4.2834759028258240e-01  -1.5699325548228265e-02  3.2172852582686963e-02  5.3128541991914850e-02  2.8435337937588140e-01  4.0754839384639208e-01  4.1395773491292154e-01  3.7093230870250937e-01  3.4358438005903275e-01  3.1127741484352134e-01  2.8096660429381914e-01  2.5066031750703527e-01  2.1981306510480672e-01  1.8887548477195037e-01  1.5667035939006688e-01  1.2666461416045791e-01  9.5599581361107702e-02  6.3367125782993514e-02  3.2000834483298678e-02  5.5363344594714021e-04  -3.0957286858933671e-02  -6.2893890223854568e-02  -9.4927984627125844e-02  -1.2729804852103960e-01  -1.5970778269087871e-01  -1.9185829881218600e-01  -2.2409150089954996e-01  -2.5750021487386771e-01  -2.9053961403710105e-01  -3.2129271299405199e-01  -3.6088209613715833e-01  -3.7856041633854026e-01  -4.2776413332379459e-01  -5.2944643735255914e-01  -1.6841399148179764e-01  1.0548981223978972e-01  7.0704750141892064e-02  3.3446571025783101e-01  4.3268781549670188e-01  4.1954118663323581e-01  3.7833840119344242e-01  3.4795404387225864e-01  3.1614457741848878e-01  2.8582100584779502e-01  2.5300446389314762e-01  2.2259977520674923e-01  1.9082858036890962e-01  1.6007333707138716e-01  1.2916938919365073e-01  9.6396790963438159e-02  6.6088894918477387e-02  3.4897797940431040e-02  3.2995870680241602e-03  -2.8701671197743750e-02  -6.0345417179760531e-02  -9.2432007552867970e-02  -1.2427865221378334e-01  -1.5693157401110164e-01  -1.8961419738492677e-01  -2.2272804355653278e-01  -2.5526830060135292e-01  -2.8935321992931068e-01  -3.2118888731257028e-01  -3.5736097397230870e-01  -3.9095930666269690e-01  -4.0370970075983476e-01  -5.4161206273431473e-01  -3.2379542475318124e-01  1.0323141478698178e-01  7.7891930052883335e-02  3.6987097647722239e-01  4.4907068365981723e-01  4.2553178565864830e-01  3.8498588541416140e-01  3.5331589502383270e-01  3.2048604628971739e-01  2.8845943312559458e-01  2.5700114919801009e-01  2.2584082341588149e-01  1.9347857860339190e-01  1.6301426145369016e-01  1.3048677461856961e-01  1.0006604058506949e-01  6.9239631749069358e-02  3.6452696324539811e-02  5.3685822322306004e-03  -2.6170851842837007e-02  -5.7656039861219519e-02  -8.9899657297721383e-02  -1.2190807944844326e-01  -1.5435286944447660e-01  -1.8693598513834109e-01  -2.1988588696474795e-01  -2.5336671864096422e-01  -2.8750271549207085e-01  -3.2154643216286011e-01  -3.5427579988807162e-01  -3.9677800549261938e-01  -4.0380455199103849e-01  -5.1308562854865802e-01  -4.6009166850888172e-01  7.1291363708281708e-02  7.5186742933073231e-02  3.9047568443448755e-01  4.5910672578018313e-01  4.3134395424842925e-01  3.9089737891316911e-01  3.5728692717325744e-01  3.2469727969916412e-01  2.9206112876403323e-01  2.5967883842370793e-01  2.2791824191059576e-01  1.9623272483365176e-01  1.6509778910230533e-01  1.3298561730873654e-01  1.0289553433600597e-01  6.9742814569089845e-02  3.9547464776002780e-02  8.7463099189710736e-03  -2.3228964878015870e-02  -5.4912512656111870e-02  -8.6512589854285657e-02  -1.1883499352557711e-01  -1.5090138395335292e-01  -1.8412300256383149e-01  -2.1716400257629381e-01  -2.5100703452737577e-01  -2.8478883991195469e-01  -3.2095432455445155e-01  -3.5355017581560994e-01  -3.9634356737644511e-01  -4.1560175667560456e-01  -4.8229778026682785e-01  -5.5360521311611743e-01  1.5036713164179144e-02  6.3741282703775506e-02  3.9651685654795776e-01  4.6404101432665801e-01  4.3626457376369288e-01  3.9505993951331186e-01  3.6124230589276235e-01  3.2768270170362063e-01  2.9478137697844653e-01  2.6262585564361635e-01  2.3045387069139900e-01  1.9859246500938366e-01  1.6705984726605408e-01  1.3555808901547758e-01  1.0456822191486220e-01  7.2747730175095712e-02  4.3479204792188877e-02  9.8311271152051634e-03  -2.0421336801145749e-02  -5.2116079202937093e-02  -8.3149543157280029e-02  -1.1553998186894260e-01  -1.4745950179216524e-01  -1.8032475808967530e-01  -2.1360232537681087e-01  -2.4767641832372783e-01  -2.8252091557850811e-01  -3.1812297109772530e-01  -3.5416660720817650e-01  -3.9336001151600186e-01  -4.2798090119251109e-01  -4.6256680572964265e-01  -6.1119979472819952e-01  -4.4335740095593115e-02  4.5485453242432590e-02  3.8767600614412845e-01  4.6419762492330030e-01  4.3995856746381901e-01  3.9761627754603479e-01  3.6414074769151755e-01  3.3029810654229108e-01  2.9698763526752070e-01  2.6444539190734639e-01  2.3243360486008427e-01  2.0055681663056382e-01  1.6897818381671822e-01  1.3758663117490910e-01  1.0647016110042254e-01  7.5469051908785140e-02  4.4500336112857537e-02  1.2578805725833191e-02  -1.5692627688402291e-02  -4.8899644725016803e-02  -7.9510722310455625e-02  -1.1135992125130560e-01  -1.4350907193488438e-01  -1.7585891583599048e-01  -2.0983732648740208e-01  -2.4303215755308333e-01  -2.7947441045393373e-01  -3.1406581132855843e-01  -3.5400567049466608e-01  -3.8944461506852679e-01  -4.3713739844658600e-01  -4.5103653366026830e-01  -6.4384608328668747e-01  -9.9851529838470704e-02  2.2660700549976640e-02  3.6291462391572488e-01  4.5988100941605919e-01  4.4171349004966415e-01  3.9954985936543808e-01  3.6581228488095879e-01  3.3178207751357863e-01  2.9923351438306650e-01  2.6626009877704071e-01  2.3391032640514950e-01  2.0205912840884793e-01  1.7057477288414175e-01  1.3931227033356050e-01  1.0835785323454990e-01  7.7648260329370458e-02  4.6904259497794962e-02  1.7316938014707264e-02  -1.4488599498763645e-02  -4.5804193655844712e-02  -7.5167358836436493e-02  -1.0690647359955588e-01  -1.3886306745847590e-01  -1.7044938136560944e-01  -2.0504834901699934e-01  -2.3733052606772628e-01  -2.7539624116025624e-01  -3.0850603300055091e-01  -3.5210880907311176e-01  -3.8471273879404405e-01  -4.4158219052799280e-01  -4.4353437722792627e-01  -6.6118252070772787e-01  -1.4696051539851476e-01  -1.8663271909414821e-03  3.2133573382205904e-01  4.4986767803755123e-01  4.4196912260835197e-01  4.0032324309230594e-01  3.6696853060541579e-01  3.3325318286655925e-01  2.9948149736595875e-01  2.6733248608893073e-01  2.3527105520964925e-01  2.0333143605854528e-01  1.7168851844574615e-01  1.4080194112990560e-01  1.0967278321942600e-01  7.9958532284462980e-02  4.8610055954159175e-02  1.9837571596542036e-02  -1.2190478058994952e-02  -3.9065426949651712e-02  -7.1437377006674171e-02  -1.0201364397826544e-01  -1.3334890577143238e-01  -1.6443123669284840e-01  -1.9895619690860974e-01  -2.3047200765206147e-01  -2.6955554026671130e-01  -3.0165044333306501e-01  -3.4761909322000978e-01  -3.7863944906944091e-01  -4.4149194660380370e-01  -4.3621871479048979e-01  -6.6825713136494880e-01  -1.8684522625337416e-01  -2.3315714771413514e-02  2.6223323459405334e-01  4.3232041214206485e-01  4.3947067764088460e-01  4.0231586213010478e-01  3.6621058880876911e-01  3.3382642954267489e-01  3.0116509240135558e-01  2.6802980925200076e-01  2.3527689271726213e-01  2.0408592391491720e-01  1.7212014021613101e-01  1.4222292702649211e-01  1.1034110243908439e-01  8.2119066850072933e-02  5.0482242656724609e-02  2.3119954960234494e-02  -8.0898316370531069e-03  -3.5428828939493756e-02  -6.8938733462752935e-02  -9.4469159404784564e-02  -1.2743796983415273e-01  -1.5744174016301471e-01  -1.9150825557033227e-01  -2.2249646370731321e-01  -2.6152311880894774e-01  -2.9315413921197275e-01  -3.4031982774548625e-01  -3.7049139740760711e-01  -4.3695490233469630e-01  -4.2716502223918668e-01  -6.6814548084940328e-01  -2.2023525718503953e-01  -3.6833235690732713e-02  1.8933469673948669e-01  4.0089482362673368e-01  4.3434822548958762e-01  4.0311196345367206e-01  3.6682684819846534e-01  3.3419056991333784e-01  2.9965075858445128e-01  2.6857509493319576e-01  2.3564660178703972e-01  2.0470584550116000e-01  1.7175295677284588e-01  1.4298811436112913e-01  1.1094812252386003e-01  8.3267151802005585e-02  5.2405509888082652e-02  2.5545045513796515e-02  -5.1697230737428679e-03  -3.1603037070085736e-02  -6.1644173735068260e-02  -8.7658516052417257e-02  -1.2228860573388106e-01  -1.4823308994442974e-01  -1.8261481998755136e-01  -2.1306334828609635e-01  -2.5130134015091710e-01  -2.8269273320144878e-01  -3.2988633574116760e-01  -3.5979005886508447e-01  -4.2815365848987869e-01  -4.1498024274674694e-01  -6.6223392148104110e-01  -2.4892421336721421e-01  -3.5629239169728995e-02  1.0996171653212614e-01  3.4839464099899131e-01  4.2210740512663075e-01  4.0520310538092152e-01  3.6582232064441655e-01  3.3404550049111681e-01  3.0125363038824560e-01  2.6801322464930999e-01  2.3400193161023827e-01  2.0422192300877068e-01  1.7142281970185952e-01  1.4233118265630967e-01  1.1155598156933694e-01  8.3692099691639585e-02  5.4223136626114575e-02  2.7608268676203619e-02  -9.7289302322864195e-04  -2.6911385878552251e-02  -5.6008888242561186e-02  -8.3260727199715695e-02  -1.1244072732485991e-01  -1.3851874290267260e-01  -1.7333034393286861e-01  -2.0147955463822040e-01  -2.3839662454871108e-01  -2.7026577919334543e-01  -3.1605510979889817e-01  -3.4602181592048015e-01  -4.1519235578499503e-01  -3.9879478227794246e-01  -6.5151523289056479e-01  -2.7375860921532397e-01  -1.9241143361325777e-02  3.9305671550869052e-02  2.6716789022566501e-01  3.9739637237919478e-01  4.0228424130353180e-01  3.6918885559187631e-01  3.3336262190619093e-01  2.9822584868645902e-01  2.6811446125488109e-01  2.3395196100421745e-01  2.0230605570618490e-01  1.7052932947339761e-01  1.4083761385872562e-01  1.1101430120780065e-01  8.3604608962921476e-02  5.5432213776188330e-02  2.9486428317828977e-02  2.2938759840610639e-03  -2.3004351286854279e-02  -4.9988850275747392e-02  -7.4758383982175353e-02  -1.0232783748042654e-01  -1.3028423757585797e-01  -1.5981251663042526e-01  -1.8852143795577148e-01  -2.2329103071700543e-01  -2.5533460675807423e-01  -2.9842728127617446e-01  -3.2911405310367281e-01  -3.9775383454981572e-01  -3.7798988465508709e-01  -6.3630899738653290e-01  -2.9592895174413719e-01  -3.3511643134459838e-04  -7.3187656623968271e-03  1.6743565097698263e-01  3.4501507799038017e-01  3.9459461631166243e-01  3.6865293446024427e-01  3.3495266568801629e-01  3.0006771250669623e-01  2.6500988348093507e-01  2.3135698273513705e-01  1.9998008157621794e-01  1.6775547582575623e-01  1.3914609735230324e-01  1.0902625879112153e-01  8.3096149355952775e-02  5.5243436900744840e-02  3.1468315138248708e-02  4.9899670276361986e-03  -1.7579445236569707e-02  -4.3672768385182144e-02  -6.6507589021382568e-02  -9.403299466934