<?xml version="1.0"?>
<VTKFile type="UnstructuredGrid"  version="0.1"  >
<UnstructuredGrid>
<Piece  NumberOfPoints="1089" NumberOfCells="1024">
<Points>
<DataArray  type="Float64"  NumberOfComponents="3"  format="ascii">0 0 0  0.03125 0 0  0.0625 0 0  0.09375 0 0  0.125 0 0  0.15625 0 0  0.1875 0 0  0.21875 0 0  0.25 0 0  0.28125 0 0  0.3125 0 0  0.34375 0 0  0.375 0 0  0.40625 0 0  0.4375 0 0  0.46875 0 0  0.5 0 0  0.53125 0 0  0.5625 0 0  0.59375 0 0  0.625 0 0  0.65625 0 0  0.6875 0 0  0.71875 0 0  0.75 0 0  0.78125 0 0  0.8125 0 0  0.84375 0 0  0.875 0 0  0.90625 0 0  0.9375 0 0  0.96875 0 0  1 0 0  0 0.03125 0  0.03125 0.03125 0  0.0625 0.03125 0  0.09375 0.03125 0  0.125 0.03125 0  0.15625 0.03125 0  0.1875 0.03125 0  0.21875 0.03125 0  0.25 0.03125 0  0.28125 0.03125 0  0.3125 0.03125 0  0.34375 0.03125 0  0.375 0.03125 0  0.40625 0.03125 0  0.4375 0.03125 0  0.46875 0.03125 0  0.5 0.03125 0  0.53125 0.03125 0  0.5625 0.03125 0  0.59375 0.03125 0  0.625 0.03125 0  0.65625 0.03125 0  0.6875 0.03125 0  0.71875 0.03125 0  0.75 0.03125 0  0.78125 0.03125 0  0.8125 0.03125 0  0.84375 0.03125 0  0.875 0.03125 0  0.90625 0.03125 0  0.9375 0.03125 0  0.96875 0.03125 0  1 0.03125 0  0 0.0625 0  0.03125 0.0625 0  0.0625 0.0625 0  0.09375 0.0625 0  0.125 0.0625 0  0.15625 0.0625 0  0.1875 0.0625 0  0.21875 0.0625 0  0.25 0.0625 0  0.28125 0.0625 0  0.3125 0.0625 0  0.34375 0.0625 0  0.375 0.0625 0  0.40625 0.0625 0  0.4375 0.0625 0  0.46875 0.0625 0  0.5 0.0625 0  0.53125 0.0625 0  0.5625 0.0625 0  0.59375 0.0625 0  0.625 0.0625 0  0.65625 0.0625 0  0.6875 0.0625 0  0.71875 0.0625 0  0.75 0.0625 0  0.78125 0.0625 0  0.8125 0.0625 0  0.84375 0.0625 0  0.875 0.0625 0  0.90625 0.0625 0  0.9375 0.0625 0  0.96875 0.0625 0  1 0.0625 0  0 0.09375 0  0.03125 0.09375 0  0.0625 0.09375 0  0.09375 0.09375 0  0.125 0.09375 0  0.15625 0.09375 0  0.1875 0.09375 0  0.21875 0.09375 0  0.25 0.09375 0  0.28125 0.09375 0  0.3125 0.09375 0  0.34375 0.09375 0  0.375 0.09375 0  0.40625 0.09375 0  0.4375 0.09375 0  0.46875 0.09375 0  0.5 0.09375 0  0.53125 0.09375 0  0.5625 0.09375 0  0.59375 0.09375 0  0.625 0.09375 0  0.65625 0.09375 0  0.6875 0.09375 0  0.71875 0.09375 0  0.75 0.09375 0  0.78125 0.09375 0  0.8125 0.09375 0  0.84375 0.09375 0  0.875 0.09375 0  0.90625 0.09375 0  0.9375 0.09375 0  0.96875 0.09375 0  1 0.09375 0  0 0.125 0  0.03125 0.125 0  0.0625 0.125 0  0.09375 0.125 0  0.125 0.125 0  0.15625 0.125 0  0.1875 0.125 0  0.21875 0.125 0  0.25 0.125 0  0.28125 0.125 0  0.3125 0.125 0  0.34375 0.125 0  0.375 0.125 0  0.40625 0.125 0  0.4375 0.125 0  0.46875 0.125 0  0.5 0.125 0  0.53125 0.125 0  0.5625 0.125 0  0.59375 0.125 0  0.625 0.125 0  0.65625 0.125 0  0.6875 0.125 0  0.71875 0.125 0  0.75 0.125 0  0.78125 0.125 0  0.8125 0.125 0  0.84375 0.125 0  0.875 0.125 0  0.90625 0.125 0  0.9375 0.125 0  0.96875 0.125 0  1 0.125 0  0 0.15625 0  0.03125 0.15625 0  0.0625 0.15625 0  0.09375 0.15625 0  0.125 0.15625 0  0.15625 0.15625 0  0.1875 0.15625 0  0.21875 0.15625 0  0.25 0.15625 0  0.28125 0.15625 0  0.3125 0.15625 0  0.34375 0.15625 0  0.375 0.15625 0  0.40625 0.15625 0  0.4375 0.15625 0  0.46875 0.15625 0  0.5 0.15625 0  0.53125 0.15625 0  0.5625 0.15625 0  0.59375 0.15625 0  0.625 0.15625 0  0.65625 0.15625 0  0.6875 0.15625 0  0.71875 0.15625 0  0.75 0.15625 0  0.78125 0.15625 0  0.8125 0.15625 0  0.84375 0.15625 0  0.875 0.15625 0  0.90625 0.15625 0  0.9375 0.15625 0  0.96875 0.15625 0  1 0.15625 0  0 0.1875 0  0.03125 0.1875 0  0.0625 0.1875 0  0.09375 0.1875 0  0.125 0.1875 0  0.15625 0.1875 0  0.1875 0.1875 0  0.21875 0.1875 0  0.25 0.1875 0  0.28125 0.1875 0  0.3125 0.1875 0  0.34375 0.1875 0  0.375 0.1875 0  0.40625 0.1875 0  0.4375 0.1875 0  0.46875 0.1875 0  0.5 0.1875 0  0.53125 0.1875 0  0.5625 0.1875 0  0.59375 0.1875 0  0.625 0.1875 0  0.65625 0.1875 0  0.6875 0.1875 0  0.71875 0.1875 0  0.75 0.1875 0  0.78125 0.1875 0  0.8125 0.1875 0  0.84375 0.1875 0  0.875 0.1875 0  0.90625 0.1875 0  0.9375 0.1875 0  0.96875 0.1875 0  1 0.1875 0  0 0.21875 0  0.03125 0.21875 0  0.0625 0.21875 0  0.09375 0.21875 0  0.125 0.21875 0  0.15625 0.21875 0  0.1875 0.21875 0  0.21875 0.21875 0  0.25 0.21875 0  0.28125 0.21875 0  0.3125 0.21875 0  0.34375 0.21875 0  0.375 0.21875 0  0.40625 0.21875 0  0.4375 0.21875 0  0.46875 0.21875 0  0.5 0.21875 0  0.53125 0.21875 0  0.5625 0.21875 0  0.59375 0.21875 0  0.625 0.21875 0  0.65625 0.21875 0  0.6875 0.21875 0  0.71875 0.21875 0  0.75 0.21875 0  0.78125 0.21875 0  0.8125 0.21875 0  0.84375 0.21875 0  0.875 0.21875 0  0.90625 0.21875 0  0.9375 0.21875 0  0.96875 0.21875 0  1 0.21875 0  0 0.25 0  0.03125 0.25 0  0.0625 0.25 0  0.09375 0.25 0  0.125 0.25 0  0.15625 0.25 0  0.1875 0.25 0  0.21875 0.25 0  0.25 0.25 0  0.28125 0.25 0  0.3125 0.25 0  0.34375 0.25 0  0.375 0.25 0  0.40625 0.25 0  0.4375 0.25 0  0.46875 0.25 0  0.5 0.25 0  0.53125 0.25 0  0.5625 0.25 0  0.59375 0.25 0  0.625 0.25 0  0.65625 0.25 0  0.6875 0.25 0  0.71875 0.25 0  0.75 0.25 0  0.78125 0.25 0  0.8125 0.25 0  0.84375 0.25 0  0.875 0.25 0  0.90625 0.25 0  0.9375 0.25 0  0.96875 0.25 0  1 0.25 0  0 0.28125 0  0.03125 0.28125 0  0.0625 0.28125 0  0.09375 0.28125 0  0.125 0.28125 0  0.15625 0.28125 0  0.1875 0.28125 0  0.21875 0.28125 0  0.25 0.28125 0  0.28125 0.28125 0  0.3125 0.28125 0  0.34375 0.28125 0  0.375 0.28125 0  0.40625 0.28125 0  0.4375 0.28125 0  0.46875 0.28125 0  0.5 0.28125 0  0.53125 0.28125 0  0.5625 0.28125 0  0.59375 0.28125 0  0.625 0.28125 0  0.65625 0.28125 0  0.6875 0.28125 0  0.71875 0.28125 0  0.75 0.28125 0  0.78125 0.28125 0  0.8125 0.28125 0  0.84375 0.28125 0  0.875 0.28125 0  0.90625 0.28125 0  0.9375 0.28125 0  0.96875 0.28125 0  1 0.28125 0  0 0.3125 0  0.03125 0.3125 0  0.0625 0.3125 0  0.09375 0.3125 0  0.125 0.3125 0  0.15625 0.3125 0  0.1875 0.3125 0  0.21875 0.3125 0  0.25 0.3125 0  0.28125 0.3125 0  0.3125 0.3125 0  0.34375 0.3125 0  0.375 0.3125 0  0.40625 0.3125 0  0.4375 0.3125 0  0.46875 0.3125 0  0.5 0.3125 0  0.53125 0.3125 0  0.5625 0.3125 0  0.59375 0.3125 0  0.625 0.3125 0  0.65625 0.3125 0  0.6875 0.3125 0  0.71875 0.3125 0  0.75 0.3125 0  0.78125 0.3125 0  0.8125 0.3125 0  0.84375 0.3125 0  0.875 0.3125 0  0.90625 0.3125 0  0.9375 0.3125 0  0.96875 0.3125 0  1 0.3125 0  0 0.34375 0  0.03125 0.34375 0  0.0625 0.34375 0  0.09375 0.34375 0  0.125 0.34375 0  0.15625 0.34375 0  0.1875 0.34375 0  0.21875 0.34375 0  0.25 0.34375 0  0.28125 0.34375 0  0.3125 0.34375 0  0.34375 0.34375 0  0.375 0.34375 0  0.40625 0.34375 0  0.4375 0.34375 0  0.46875 0.34375 0  0.5 0.34375 0  0.53125 0.34375 0  0.5625 0.34375 0  0.59375 0.34375 0  0.625 0.34375 0  0.65625 0.34375 0  0.6875 0.34375 0  0.71875 0.34375 0  0.75 0.34375 0  0.78125 0.34375 0  0.8125 0.34375 0  0.84375 0.34375 0  0.875 0.34375 0  0.90625 0.34375 0  0.9375 0.34375 0  0.96875 0.34375 0  1 0.34375 0  0 0.375 0  0.03125 0.375 0  0.0625 0.375 0  0.09375 0.375 0  0.125 0.375 0  0.15625 0.375 0  0.1875 0.375 0  0.21875 0.375 0  0.25 0.375 0  0.28125 0.375 0  0.3125 0.375 0  0.34375 0.375 0  0.375 0.375 0  0.40625 0.375 0  0.4375 0.375 0  0.46875 0.375 0  0.5 0.375 0  0.53125 0.375 0  0.5625 0.375 0  0.59375 0.375 0  0.625 0.375 0  0.65625 0.375 0  0.6875 0.375 0  0.71875 0.375 0  0.75 0.375 0  0.78125 0.375 0  0.8125 0.375 0  0.84375 0.375 0  0.875 0.375 0  0.90625 0.375 0  0.9375 0.375 0  0.96875 0.375 0  1 0.375 0  0 0.40625 0  0.03125 0.40625 0  0.0625 0.40625 0  0.09375 0.40625 0  0.125 0.40625 0  0.15625 0.40625 0  0.1875 0.40625 0  0.21875 0.40625 0  0.25 0.40625 0  0.28125 0.40625 0  0.3125 0.40625 0  0.34375 0.40625 0  0.375 0.40625 0  0.40625 0.40625 0  0.4375 0.40625 0  0.46875 0.40625 0  0.5 0.40625 0  0.53125 0.40625 0  0.5625 0.40625 0  0.59375 0.40625 0  0.625 0.40625 0  0.65625 0.40625 0  0.6875 0.40625 0  0.71875 0.40625 0  0.75 0.40625 0  0.78125 0.40625 0  0.8125 0.40625 0  0.84375 0.40625 0  0.875 0.40625 0  0.90625 0.40625 0  0.9375 0.40625 0  0.96875 0.40625 0  1 0.40625 0  0 0.4375 0  0.03125 0.4375 0  0.0625 0.4375 0  0.09375 0.4375 0  0.125 0.4375 0  0.15625 0.4375 0  0.1875 0.4375 0  0.21875 0.4375 0  0.25 0.4375 0  0.28125 0.4375 0  0.3125 0.4375 0  0.34375 0.4375 0  0.375 0.4375 0  0.40625 0.4375 0  0.4375 0.4375 0  0.46875 0.4375 0  0.5 0.4375 0  0.53125 0.4375 0  0.5625 0.4375 0  0.59375 0.4375 0  0.625 0.4375 0  0.65625 0.4375 0  0.6875 0.4375 0  0.71875 0.4375 0  0.75 0.4375 0  0.78125 0.4375 0  0.8125 0.4375 0  0.84375 0.4375 0  0.875 0.4375 0  0.90625 0.4375 0  0.9375 0.4375 0  0.96875 0.4375 0  1 0.4375 0  0 0.46875 0  0.03125 0.46875 0  0.0625 0.46875 0  0.09375 0.46875 0  0.125 0.46875 0  0.15625 0.46875 0  0.1875 0.46875 0  0.21875 0.46875 0  0.25 0.46875 0  0.28125 0.46875 0  0.3125 0.46875 0  0.34375 0.46875 0  0.375 0.46875 0  0.40625 0.46875 0  0.4375 0.46875 0  0.46875 0.46875 0  0.5 0.46875 0  0.53125 0.46875 0  0.5625 0.46875 0  0.59375 0.46875 0  0.625 0.46875 0  0.65625 0.46875 0  0.6875 0.46875 0  0.71875 0.46875 0  0.75 0.46875 0  0.78125 0.46875 0  0.8125 0.46875 0  0.84375 0.46875 0  0.875 0.46875 0  0.90625 0.46875 0  0.9375 0.46875 0  0.96875 0.46875 0  1 0.46875 0  0 0.5 0  0.03125 0.5 0  0.0625 0.5 0  0.09375 0.5 0  0.125 0.5 0  0.15625 0.5 0  0.1875 0.5 0  0.21875 0.5 0  0.25 0.5 0  0.28125 0.5 0  0.3125 0.5 0  0.34375 0.5 0  0.375 0.5 0  0.40625 0.5 0  0.4375 0.5 0  0.46875 0.5 0  0.5 0.5 0  0.53125 0.5 0  0.5625 0.5 0  0.59375 0.5 0  0.625 0.5 0  0.65625 0.5 0  0.6875 0.5 0  0.71875 0.5 0  0.75 0.5 0  0.78125 0.5 0  0.8125 0.5 0  0.84375 0.5 0  0.875 0.5 0  0.90625 0.5 0  0.9375 0.5 0  0.96875 0.5 0  1 0.5 0  0 0.53125 0  0.03125 0.53125 0  0.0625 0.53125 0  0.09375 0.53125 0  0.125 0.53125 0  0.15625 0.53125 0  0.1875 0.53125 0  0.21875 0.53125 0  0.25 0.53125 0  0.28125 0.53125 0  0.3125 0.53125 0  0.34375 0.53125 0  0.375 0.53125 0  0.40625 0.53125 0  0.4375 0.53125 0  0.46875 0.53125 0  0.5 0.53125 0  0.53125 0.53125 0  0.5625 0.53125 0  0.59375 0.53125 0  0.625 0.53125 0  0.65625 0.53125 0  0.6875 0.53125 0  0.71875 0.53125 0  0.75 0.53125 0  0.78125 0.531
[...]
<PointData  Scalars="v_sol"> 
<DataArray  type="Float64"  Name="v_sol"  format="ascii">4.1955739064570483e-05  2.9300776853847670e-04  4.9106745715574022e-04  5.2956578029888818e-04  1.4531403607907753e-05  -1.1795170562133870e-03  -6.3371539611272311e-04  6.2637075715142132e-04  1.8022656149688121e-03  -1.3551864167050988e-03  -6.4618714507073318e-03  -7.4341400109103131e-03  -4.7025218173866422e-03  -2.1640228567446807e-03  1.7115962975910107e-05  1.0446924159646822e-03  1.9123520805137840e-03  2.2258675564999467e-03  2.7360535243240577e-03  3.0734649024560141e-03  3.6099312548513313e-03  4.0932130169988807e-03  4.0905364438723188e-03  3.3835266240903779e-03  1.5670024774476477e-03  -8.5613859434708034e-04  -2.9228280424434760e-03  -2.0068641198632566e-03  -1.1225763793310253e-03  -4.2362775609795230e-04  -2.1428976643532403e-04  -6.3764434305633443e-05  1.9042372709117246e-05  1.5191045046839216e-04  -1.6708841886682957e-03  -3.0760083017504986e-03  -3.4127951032745488e-03  -3.5363515381568820e-04  5.2184627702759820e-03  2.6062016674497906e-03  -6.2602860974982043e-03  -5.3087475480035067e-04  1.0201670244844857e-02  1.4377671649961957e-02  2.1314814063426137e-02  2.6145311678206277e-02  2.5998978337840310e-02  1.9488463385571350e-02  8.9330553189935335e-03  -4.4703086083359199e-03  -1.8167319184052583e-02  -3.0788831392977542e-02  -3.8813109665457909e-02  -4.0059842216639392e-02  -3.1121335789998570e-02  -1.4873129794059154e-02  3.4030414538657569e-03  1.4538865277293046e-02  1.4981242780331746e-02  1.1540749908226910e-02  7.2439908844277659e-03  4.4923179897563186e-03  2.0757492157100440e-03  9.0254563746273704e-04  1.4405283324370535e-04  -1.6956014065324987e-04  -3.6564202335295001e-05  -6.4130685727120888e-03  -8.1910136220624281e-03  -9.4621462360891077e-03  -8.1462497691849912e-03  9.6034033604386840e-03  1.3145813448634755e-02  1.3848290312827884e-02  3.6966244765642836e-02  6.2519914684995501e-02  7.8930931513178218e-02  8.1719071443792604e-02  7.3354269192527438e-02  5.7460286230193225e-02  3.6333757311207159e-02  1.1950774676915880e-02  -1.4610490393701749e-02  -4.1912421243410686e-02  -6.8138487531379771e-02  -8.9728528442104591e-02  -1.0136093989459803e-01  -9.7457551147706739e-02  -7.4948295399858561e-02  -3.9887017820851738e-02  -4.3552440297268454e-03  1.4709438653375463e-02  2.1039854912000187e-02  2.1512857633198282e-02  1.5238719210093418e-02  9.5656627387034985e-03  4.9488332858390370e-03  1.8643172556461623e-03  -1.6540884741529229e-04  -4.3422584807418103e-04  -1.3298568951702911e-02  -1.1260907708503772e-02  -1.3118361946476099e-03  6.7479095749490431e-05  1.3604424636773678e-02  4.1520350635437291e-02  8.0181337599703417e-02  1.1869914863109339e-01  1.3760567153201214e-01  1.3843139676490099e-01  1.2386971478914371e-01  1.0186585729411829e-01  7.4569896032479405e-02  4.5690286859406376e-02  1.4574497953128793e-02  -1.7289153354853783e-02  -5.1212823575876296e-02  -8.5495308160971090e-02  -1.1941077993618020e-01  -1.4725921201633158e-01  -1.6255456905177781e-01  -1.5529640472854275e-01  -1.2207121327369977e-01  -6.8677591742975247e-02  -1.7968447789521547e-02  9.6713844573248064e-03  1.8152363356367298e-02  2.1965569128436318e-02  1.6425694457927364e-02  1.0673609999845818e-02  5.6994459665239078e-03  1.1160044133807319e-04  -1.6748951487054785e-03  -2.1798013185861855e-02  -1.2691913609742225e-02  8.4625918890885651e-03  2.4966593618958623e-02  5.8169692090769276e-02  1.1749844732832029e-01  1.6828901608659663e-01  1.9137495690865275e-01  1.8882653675407921e-01  1.6927037635916944e-01  1.4099224786778983e-01  1.0980948653442807e-01  7.7961455995392101e-02  4.6527763211925151e-02  1.4842260497787448e-02  -1.7116379520363018e-02  -5.0330990178389129e-02  -8.4871877556066150e-02  -1.2136515044992527e-01  -1.5859079996118400e-01  -1.9296316002135772e-01  -2.1525366546347130e-01  -2.1206500818850862e-01  -1.7218452795821426e-01  -1.0021204443591165e-01  -2.6912607391514354e-02  7.8125357461822555e-03  1.6283106003352938e-02  2.0429308494339712e-02  1.5928073181570308e-02  9.4120474900461076e-03  6.7417887652172998e-04  -5.2567763148412428e-03  -2.8081939060111277e-02  -4.3376642625649340e-03  2.5993744692539407e-02  7.2916603349607548e-02  1.4704272196335061e-01  2.1050560129685222e-01  2.3640759461150479e-01  2.3081119565625097e-01  2.0548910563991840e-01  1.7332327317872973e-01  1.3994534453706975e-01  1.0804643106197342e-01  7.6785724085540949e-02  4.6053830233546755e-02  1.4828879223636404e-02  -1.6616410038394130e-02  -4.8783575406736064e-02  -8.1190373305160712e-02  -1.1439894947166079e-01  -1.4863393439283559e-01  -1.8531007155279719e-01  -2.2327045309427060e-01  -2.5526311912134303e-01  -2.6200584549263256e-01  -2.2100111023986993e-01  -1.2797693362413792e-01  -2.8513156092354410e-02  1.0014794799412681e-02  1.7395068092531007e-02  1.7906131994537160e-02  1.4060369093287346e-02  9.7101960840389665e-04  -1.1835498063032222e-02  -2.6884251605731341e-02  1.7675934265083331e-02  7.4405021469738250e-02  1.5651559969355583e-01  2.3527945904708486e-01  2.7091700056719337e-01  2.6592145321051092e-01  2.3874929980640491e-01  2.0469992690891559e-01  1.7202206775499612e-01  1.4086973581377862e-01  1.1067913858282750e-01  7.9814634178769037e-02  4.8628437883585750e-02  1.6582190987915999e-02  -1.5718056743405592e-02  -4.8675868079527278e-02  -8.1591301246426995e-02  -1.1448223342525228e-01  -1.4638500941932281e-01  -1.7790075347536255e-01  -2.1062068456095512e-01  -2.4783067935687275e-01  -2.8566927340025389e-01  -3.0235178934839901e-01  -2.5965998723394623e-01  -1.4143213489404585e-01  -1.6119166393123462e-02  1.1330817618580806e-02  2.2572590205387634e-02  1.3964238592525640e-02  1.2227832595454562e-03  -1.8365427569384422e-02  -1.3420594794045972e-02  5.7956071894562436e-02  1.4660218522960136e-01  2.4256000671536615e-01  2.9805396456638894e-01  2.9899362993603135e-01  2.7207262868597570e-01  2.3717726391295924e-01  2.0495900208753115e-01  1.7513351786971204e-01  1.4499489736039400e-01  1.1417293088501881e-01  8.2364843821552250e-02  5.0596308115801673e-02  1.8270710053635245e-02  -1.3971105500476403e-02  -4.6802143280918321e-02  -7.9647341411671249e-02  -1.1300519508818110e-01  -1.4615846893318363e-01  -1.7874823189347991e-01  -2.0959999455563036e-01  -2.3993051355651174e-01  -2.7467865070913028e-01  -3.1440143751230587e-01  -3.3518787049543175e-01  -2.8197957517545641e-01  -1.2835243950735192e-01  9.3717195910408661e-03  9.5591809081856018e-03  2.1049435788852267e-02  2.3559575571061846e-03  -1.9463718739074369e-02  1.7336124490528709e-02  1.1821024508967513e-01  2.2557919974545795e-01  3.0917068230324529e-01  3.2788727643705906e-01  3.0402614711008358e-01  2.7041108224984312e-01  2.3775145775732276e-01  2.0968748920072394e-01  1.7929190442146015e-01  1.4834137138088016e-01  1.1623068512612292e-01  8.4620658856180447e-02  5.2453374906486938e-02  2.0300998732452537e-02  -1.2384533220675077e-02  -4.5040546892735608e-02  -7.8019957802907783e-02  -1.1069943477360659e-01  -1.4360402780970477e-01  -1.7611964262091367e-01  -2.0882341694802714e-01  -2.3993407904754491e-01  -2.7049552401402249e-01  -3.0462829728885837e-01  -3.4557643755384793e-01  -3.6125286777145427e-01  -2.7937888467222805e-01  -7.5858218632729651e-02  2.2690234487726810e-02  1.8517212245044119e-02  -1.9168322373438937e-03  -9.5865382785572176e-03  6.4168173469157916e-02  1.8517026735943790e-01  2.9391726809136109e-01  3.4901996847487116e-01  3.3700213424055542e-01  3.0465050320709930e-01  2.7179357687232869e-01  2.4333645543281027e-01  2.1415463579955496e-01  1.8178048164364929e-01  1.5081121262760289e-01  1.1888616005343644e-01  8.7625106896577584e-02  5.4926425031468065e-02  2.2817004044172605e-02  -1.0305370607150656e-02  -4.2864863668383719e-02  -7.6264753853286529e-02  -1.0908686407580037e-01  -1.4245806755939544e-01  -1.7500585464638727e-01  -2.0763438613174459e-01  -2.3926037194194691e-01  -2.7003826099320360e-01  -3.0041891544394206e-01  -3.3702134102140974e-01  -3.7912295050464939e-01  -3.7484606003850002e-01  -2.3399608529100469e-01  1.2503871566930754e-02  3.8912838927422999e-03  1.3325772430395353e-02  1.0534865042919735e-02  1.2009135034720766e-01  2.4961649175392139e-01  3.4499137384732442e-01  3.6863010521285411e-01  3.3868833100937512e-01  3.0613544758907335e-01  2.7601145627424539e-01  2.4819936497343009e-01  2.1608358711894793e-01  1.8515672468652739e-01  1.5448640794213084e-01  1.2230572945263100e-01  9.0148366903330654e-02  5.7319740804159788e-02  2.5020273955099547e-02  -8.0568670676382410e-03  -4.0718271138789522e-02  -7.3950886382038061e-02  -1.0677593672402301e-01  -1.3992456844668055e-01  -1.7287948068398420e-01  -2.0603551739755160e-01  -2.3911391975928764e-01  -2.7108038075004914e-01  -3.0093188567732915e-01  -3.3092338507538166e-01  -3.7250893515905281e-01  -4.1129580938488480e-01  -3.5607853416037699e-01  -1.1647100286624958e-01  3.4633243286668586e-02  7.9199059955736475e-03  3.5026677021842104e-02  1.7805608554584143e-01  3.0383749121760928e-01  3.7973027675699905e-01  3.7720666833065453e-01  3.4031251243835725e-01  3.1103376867932764e-01  2.8146139658310909e-01  2.5203178671566823e-01  2.1952649104875341e-01  1.8989633255999053e-01  1.5695254474753376e-01  1.2469691356619129e-01  9.2487437641945905e-02  6.0288943268193590e-02  2.7544941294993852e-02  -5.3908457891195943e-03  -3.8519389276013866e-02  -7.1700689576850510e-02  -1.0504200278571710e-01  -1.3817710915819498e-01  -1.7133747068304978e-01  -2.0397847900823074e-01  -2.3707170114150830e-01  -2.7028387867161785e-01  -3.0319292193171904e-01  -3.3222453410390446e-01  -3.6415771310465833e-01  -4.1281111721897690e-01  -4.2646784566974405e-01  -2.6270392916674440e-01  5.0688243988204991e-02  -4.0411091210901598e-02  5.8442216427191683e-02  2.3077320777471297e-01  3.4658120447419449e-01  4.0290238176658449e-01  3.8179491436584284e-01  3.4460301788568715e-01  3.1649129317896252e-01  2.8580898321632947e-01  2.5540584689126561e-01  2.2346425062276734e-01  1.9278732761103373e-01  1.5915235016486731e-01  1.2868404010684859e-01  9.5859851732805174e-02  6.3328377987025383e-02  2.9967429605400518e-02  -2.7018341872813395e-03  -3.6066807365425113e-02  -6.8982509610232626e-02  -1.0249504696343797e-01  -1.3561999412353518e-01  -1.6937801763952706e-01  -2.0263083804367160e-01  -2.3607447943930693e-01  -2.6901799739839677e-01  -3.0264902428575347e-01  -3.3517638609427486e-01  -3.6412332773175565e-01  -4.0396886698013507e-01  -4.5320990512586695e-01  -3.7171445123358698e-01  -2.6386175206319154e-02  -1.3259848333587546e-02  7.4730257683185863e-02  2.7482610009961495e-01  3.7817187363544014e-01  4.1861670846536142e-01  3.8593066808383164e-01  3.5024462400028389e-01  3.2207647674102197e-01  2.9032859347689011e-01  2.5944529803142741e-01  2.2740056577764103e-01  1.9569723151550475e-01  1.6313203227885192e-01  1.3202946793989184e-01  9.7592708427554284e-02  6.5746337999174329e-02  3.2618178977623973e-02  1.5897546451883117e-04  -3.3454300934466399e-02  -6.6374540508436206e-02  -1.0007362899205011e-01  -1.3314998277498027e-01  -1.6685264203783545e-01  -2.0024804794161055e-01  -2.3410104125050563e-01  -2.6796025930634704e-01  -3.0220911798726213e-01  -3.3634298646374622e-01  -3.6784082527917777e-01  -3.9963237244298638e-01  -4.5764512752281500e-01  -4.5081871901565129e-01  -1.5469423227826995e-01  8.0033709964660915e-02  8.1246201405386020e-02  3.0772624371621377e-01  4.0062903284708268e-01  4.2981096241317074e-01  3.9054130832904432e-01  3.5637024714084359e-01  3.2683333874863835e-01  2.9424388140168595e-01  2.6305746586521128e-01  2.3058571202560693e-01  1.9864097575433293e-01  1.6641727011753307e-01  1.3388047388291002e-01  1.0074341647190142e-01  6.9690831900762126e-02  3.5693661201094899e-02  3.0491455169201973e-03  -3.0562395249710710e-02  -6.3368954304163977e-02  -9.7070955675160664e-02  -1.3032142054953397e-01  -1.6413078827908678e-01  -1.9792071705489855e-01  -2.3203670688434616e-01  -2.6597198131909494e-01  -3.0088095466759185e-01  -3.3614406839471572e-01  -3.7201575465450631e-01  -4.0082535380634848e-01  -4.5534729095903115e-01  -5.0126067876754943e-01  -2.8189573706301335e-01  1.6243337919043394e-01  7.6258757190941315e-02  3.2896515150714245e-01  4.1533509724920492e-01  4.3787083522539805e-01  3.9553472977598814e-01  3.6181461501635120e-01  3.3126121367288724e-01  2.9825962280610474e-01  2.6660244752809892e-01  2.3379000952744344e-01  2.0180519260684893e-01  1.6929380071921649e-01  1.3658982812055903e-01  1.0452799109413295e-01  7.1607974131667501e-02  3.7683209239931778e-02  5.9478978511542388e-03  -2.7497949144262422e-02  -6.0266440823780076e-02  -9.3765025076102418e-02  -1.2704464787543751e-01  -1.6075374100206061e-01  -1.9444756379197659e-01  -2.2915978611233928e-01  -2.6347791566174883e-01  -2.9938609491517293e-01  -3.3430443972066498e-01  -3.7367648315614799e-01  -4.0495758344436145e-01  -4.5089037734277765e-01  -5.2834351524118928e-01  -3.9165456871275628e-01  2.0921427470979187e-01  6.0247147374947171e-02  3.3789490635135339e-01  4.2367906412560924e-01  4.4324817579531611e-01  4.0044718213800273e-01  3.6619659918846276e-01  3.3481914962340109e-01  3.0144716205466160e-01  2.6941701147751684e-01  2.3645072222604843e-01  2.0433588615178119e-01  1.7164721548560433e-01  1.3920743419638659e-01  1.0693519554034629e-01  7.3648277094318065e-02  4.1939127122523269e-02  9.5562571311656932e-03  -2.4231185405608851e-02  -5.6867902216594199e-02  -9.0129064792394700e-02  -1.2317861746709129e-01  -1.5709757902216231e-01  -1.9046380853938427e-01  -2.2554959730052809e-01  -2.5953576163589676e-01  -2.9654862048602071e-01  -3.3159980651705451e-01  -3.7248213909306149e-01  -4.0763043230664936e-01  -4.4593120142907872e-01  -5.3208269064055502e-01  -4.7266045541094664e-01  1.8999184574885020e-01  3.4413594482781869e-02  3.3445931197354073e-01  4.2597798739533138e-01  4.4616767050265099e-01  4.0493066678778528e-01  3.6952320360541030e-01  3.3790779979374752e-01  3.0429954042009694e-01  2.7192824776603219e-01  2.3888606484786043e-01  2.0661507043010027e-01  1.7393943861828157e-01  1.4161379048059522e-01  1.0926766178901995e-01  7.6693414568534263e-02  4.5049955921541360e-02  1.1089177810055764e-02  -2.0918481215739797e-02  -5.2944667070787675e-02  -8.6230980869677967e-02  -1.1855693090561513e-01  -1.5263894191710548e-01  -1.8538485681225467e-01  -2.2097567229003520e-01  -2.5460552618594096e-01  -2.9234862908417814e-01  -3.2715774579840207e-01  -3.6853617855922999e-01  -4.0699408446577856e-01  -4.4059138799241787e-01  -5.1961496194821422e-01  -5.2730774402899117e-01  1.1850197838675564e-01  2.3395450590362843e-03  3.1787703668366030e-01  4.2224642206139851e-01  4.4606633862031725e-01  4.0869110279313375e-01  3.7150997343610054e-01  3.3980013102413170e-01  3.0622400841118519e-01  2.7362406363525965e-01  2.4059307352689427e-01  2.0822190250211073e-01  1.7568641053207906e-01  1.4344288658391607e-01  1.1130722272404696e-01  7.9088226482575644e-02  4.7274316602245250e-02  1.4641165687054012e-02  -1.5951569314472065e-02  -4.8955311687250612e-02  -8.1973928900805335e-02  -1.1332088952483114e-01  -1.4758834937395901e-01  -1.7936383293316385e-01  -2.1525396541931904e-01  -2.4809805558368633e-01  -2.8646521201134589e-01  -3.2103597270548806e-01  -3.6239339055206998e-01  -4.0216055561973552e-01  -4.3573557344950353e-01  -4.9825471557287071e-01  -5.6346551656690091e-01  2.5105570760545304e-02  -3.0118066019175126e-02  2.8751676542717752e-01  4.1098929848445520e-01  4.4280245472391111e-01  4.1140183922389795e-01  3.7304917322707976e-01  3.4104786537679110e-01  3.0764829091591961e-01  2.7483197192083603e-01  2.4187491077048626e-01  2.0941241607412125e-01  1.7703777381900723e-01  1.4489932323557000e-01  1.1310020232932762e-01  8.1282596734968474e-02  4.9819043409609153e-02  1.8447656866009209e-02  -1.3287177225541848e-02  -4.5584470585325672e-02  -7.6591456513983747e-02  -1.0747100071370189e-01  -1.4169033776314111e-01  -1.7221193002732094e-01  -2.0843914594299368e-01  -2.4010382351095114e-01  -2.7891868042450929e-01  -3.1263892532967708e-01  -3.5440358044292092e-01  -3.9364326258758897e-01  -4.3069013795171329e-01  -4.7466134061688592e-01  -5.8584841628355344e-01  -6.7837727219676860e-02  -5.3102289749392503e-02  2.4192257842373099e-01  3.9010814534828209e-01  4.3473518850546949e-01  4.1268080576924582e-01  3.7362545160377181e-01  3.4094341953735613e-01  3.0816398604516382e-01  2.7522397954693811e-01  2.4232283767147039e-01  2.0985203745029293e-01  1.7771352036217952e-01  1.4580837466685923e-01  1.1429725911412307e-01  8.3182841874397270e-02  5.1842047802307036e-02  2.1529098203303596e-02  -9.9653578170152083e-03  -3.9455710497876433e-02  -7.0604738510857662e-02  -1.0170433752851020e-01  -1.3464545969825908e-01  -1.6387111044027433e-01  -2.0032308464744750e-01  -2.3035622638306857e-01  -2.6975328138523674e-01  -3.0194957325342120e-01  -3.4457063356340267e-01  -3.8183977804392677e-01  -4.2462535644564992e-01  -4.5072640526692526e-01  -5.9710418814767441e-01  -1.5181037084256468e-01  -5.6138325073001739e-02  1.8106822941202758e-01  3.5613419628979226e-01  4.2102088846643260e-01  4.1169676228670798e-01  3.7492260954310996e-01  3.4056803910695210e-01  3.0798865211900545e-01  2.7509209813388280e-01  2.4221920536384289e-01  2.0970314545960778e-01  1.7763730416671644e-01  1.4620442744417386e-01  1.1476054139998836e-01  8.4751113367358882e-02  5.3676587680640570e-02  2.4765734654518656e-02  -6.1749697061248736e-03  -3.4422176737085031e-02  -6.6393435129503617e-02  -9.4780221085587577e-02  -1.2618487587105212e-01  -1.5497417265820726e-01  -1.9086450817409112e-01  -2.1870173008906274e-01  -2.5879908403146773e-01  -2.8876972401062950e-01  -3.3276450411733621e-01  -3.6709790227559741e-01  -4.1608111599778685e-01  -4.2675432499745769e-01  -5.9852618798684298e-01  -2.2570287898298660e-01  -3.6017790719606813e-02  1.0910370096462560e-01  3.0684923233334654e-01  3.9818257082833591e-01  4.0721809986947094e-01  3.7535888097742193e-01  3.3975132314652490e-01  3.0690833258017514e-01  2.7411243764279397e-01  2.4111858669379815e-01  2.0877972805268274e-01  1.7658670580447980e-01  1.4600312264375240e-01  1.1454598946350206e-01  8.5693511980753881e-02  5.5032405172433262e-02  2.7566441662767234e-02  -2.8206921140402452e-03  -2.9392548224168272e-02  -5.9986539486745885e-02  -8.5578832862295853e-02  -1.1760538470948770e-01  -1.4504416191347158e-01  -1.7927188647242373e-01  -2.0557025461772385e-01  -2.4612913946832840e-01  -2.7282160011249174e-01  -3.1863747036260387e-01  -3.4944201973891620e-01  -4.0403669716931184e-01  -4.0133679766197961e-01  -5.9142737730798001e-01  -2.9140154447290728e-01  -6.8845534865514656e-03  4.0543462231695665e-02  2.4128862396271503e-01  3.6394200325827109e-01  3.9650108124677713e-01  3.7618474282117897e-01  3.3986777527364348e-01  3.0534915574028376e-01  2.7250656377193333e-01  2.3919736567720309e-01  2.0710565240655027e-01  1.7439387123312153e-01  1.4467239814047780e-01  1.1344647554022817e-01  8.5861942922190834e-02  5.5836295009510796e-02  3.0040746093332224e-02  6.5018466267946018e-04  -2.3930054655106423e-02  -5.3523885408826577e-02  -7.7877249069808585e-02  -1.0928799302251445e-01  -1.3342294764428700e-01  -1.6611078806753510e-01  -1.9104035873764427e-01  -2.3083619762293808e-01  -2.5426252723246690e-01  -3.0205095050461961e-01  -3.2857565782925552e-01  -3.8749060679170227e-01  -3.7325936774965685e-01  -5.7649119226499268e-01  -3.5157257329740443e-01  4.9388299397804816e-04  -2.9920991881674240e-04  1.6224895737838091e-01  3.1169041524432500e-01  3.7543769557174855e-01  3.7216530722034669e-01  3.4070520172785690e-01  3.0380129119769400e-01  2.6984712097994018e-01  2.3571537598393272e-01  2.0425228296478457e-01  1.7119250247194967e-01  1.4227064148735630e-01  1.1127479854842366e-01  8.5229528952407957e-02  5.5890671400597308e-02  3.2088637898092423e-02  3.6507380342500127e-03  -1.8698309777982820e-02  -4.7203701950124237e-02  -6.8840901719444431e-02  -9.8129001480432326e-02  -1.