<?xml version="1.0"?>
<VTKFile type="UnstructuredGrid"  version="0.1"  >
<UnstructuredGrid>
<Piece  NumberOfPoints="1089" NumberOfCells="1024">
<Points>
<DataArray  type="Float64"  NumberOfComponents="3"  format="ascii">0 0 0  0.03125 0 0  0.0625 0 0  0.09375 0 0  0.125 0 0  0.15625 0 0  0.1875 0 0  0.21875 0 0  0.25 0 0  0.28125 0 0  0.3125 0 0  0.34375 0 0  0.375 0 0  0.40625 0 0  0.4375 0 0  0.46875 0 0  0.5 0 0  0.53125 0 0  0.5625 0 0  0.59375 0 0  0.625 0 0  0.65625 0 0  0.6875 0 0  0.71875 0 0  0.75 0 0  0.78125 0 0  0.8125 0 0  0.84375 0 0  0.875 0 0  0.90625 0 0  0.9375 0 0  0.96875 0 0  1 0 0  0 0.03125 0  0.03125 0.03125 0  0.0625 0.03125 0  0.09375 0.03125 0  0.125 0.03125 0  0.15625 0.03125 0  0.1875 0.03125 0  0.21875 0.03125 0  0.25 0.03125 0  0.28125 0.03125 0  0.3125 0.03125 0  0.34375 0.03125 0  0.375 0.03125 0  0.40625 0.03125 0  0.4375 0.03125 0  0.46875 0.03125 0  0.5 0.03125 0  0.53125 0.03125 0  0.5625 0.03125 0  0.59375 0.03125 0  0.625 0.03125 0  0.65625 0.03125 0  0.6875 0.03125 0  0.71875 0.03125 0  0.75 0.03125 0  0.78125 0.03125 0  0.8125 0.03125 0  0.84375 0.03125 0  0.875 0.03125 0  0.90625 0.03125 0  0.9375 0.03125 0  0.96875 0.03125 0  1 0.03125 0  0 0.0625 0  0.03125 0.0625 0  0.0625 0.0625 0  0.09375 0.0625 0  0.125 0.0625 0  0.15625 0.0625 0  0.1875 0.0625 0  0.21875 0.0625 0  0.25 0.0625 0  0.28125 0.0625 0  0.3125 0.0625 0  0.34375 0.0625 0  0.375 0.0625 0  0.40625 0.0625 0  0.4375 0.0625 0  0.46875 0.0625 0  0.5 0.0625 0  0.53125 0.0625 0  0.5625 0.0625 0  0.59375 0.0625 0  0.625 0.0625 0  0.65625 0.0625 0  0.6875 0.0625 0  0.71875 0.0625 0  0.75 0.0625 0  0.78125 0.0625 0  0.8125 0.0625 0  0.84375 0.0625 0  0.875 0.0625 0  0.90625 0.0625 0  0.9375 0.0625 0  0.96875 0.0625 0  1 0.0625 0  0 0.09375 0  0.03125 0.09375 0  0.0625 0.09375 0  0.09375 0.09375 0  0.125 0.09375 0  0.15625 0.09375 0  0.1875 0.09375 0  0.21875 0.09375 0  0.25 0.09375 0  0.28125 0.09375 0  0.3125 0.09375 0  0.34375 0.09375 0  0.375 0.09375 0  0.40625 0.09375 0  0.4375 0.09375 0  0.46875 0.09375 0  0.5 0.09375 0  0.53125 0.09375 0  0.5625 0.09375 0  0.59375 0.09375 0  0.625 0.09375 0  0.65625 0.09375 0  0.6875 0.09375 0  0.71875 0.09375 0  0.75 0.09375 0  0.78125 0.09375 0  0.8125 0.09375 0  0.84375 0.09375 0  0.875 0.09375 0  0.90625 0.09375 0  0.9375 0.09375 0  0.96875 0.09375 0  1 0.09375 0  0 0.125 0  0.03125 0.125 0  0.0625 0.125 0  0.09375 0.125 0  0.125 0.125 0  0.15625 0.125 0  0.1875 0.125 0  0.21875 0.125 0  0.25 0.125 0  0.28125 0.125 0  0.3125 0.125 0  0.34375 0.125 0  0.375 0.125 0  0.40625 0.125 0  0.4375 0.125 0  0.46875 0.125 0  0.5 0.125 0  0.53125 0.125 0  0.5625 0.125 0  0.59375 0.125 0  0.625 0.125 0  0.65625 0.125 0  0.6875 0.125 0  0.71875 0.125 0  0.75 0.125 0  0.78125 0.125 0  0.8125 0.125 0  0.84375 0.125 0  0.875 0.125 0  0.90625 0.125 0  0.9375 0.125 0  0.96875 0.125 0  1 0.125 0  0 0.15625 0  0.03125 0.15625 0  0.0625 0.15625 0  0.09375 0.15625 0  0.125 0.15625 0  0.15625 0.15625 0  0.1875 0.15625 0  0.21875 0.15625 0  0.25 0.15625 0  0.28125 0.15625 0  0.3125 0.15625 0  0.34375 0.15625 0  0.375 0.15625 0  0.40625 0.15625 0  0.4375 0.15625 0  0.46875 0.15625 0  0.5 0.15625 0  0.53125 0.15625 0  0.5625 0.15625 0  0.59375 0.15625 0  0.625 0.15625 0  0.65625 0.15625 0  0.6875 0.15625 0  0.71875 0.15625 0  0.75 0.15625 0  0.78125 0.15625 0  0.8125 0.15625 0  0.84375 0.15625 0  0.875 0.15625 0  0.90625 0.15625 0  0.9375 0.15625 0  0.96875 0.15625 0  1 0.15625 0  0 0.1875 0  0.03125 0.1875 0  0.0625 0.1875 0  0.09375 0.1875 0  0.125 0.1875 0  0.15625 0.1875 0  0.1875 0.1875 0  0.21875 0.1875 0  0.25 0.1875 0  0.28125 0.1875 0  0.3125 0.1875 0  0.34375 0.1875 0  0.375 0.1875 0  0.40625 0.1875 0  0.4375 0.1875 0  0.46875 0.1875 0  0.5 0.1875 0  0.53125 0.1875 0  0.5625 0.1875 0  0.59375 0.1875 0  0.625 0.1875 0  0.65625 0.1875 0  0.6875 0.1875 0  0.71875 0.1875 0  0.75 0.1875 0  0.78125 0.1875 0  0.8125 0.1875 0  0.84375 0.1875 0  0.875 0.1875 0  0.90625 0.1875 0  0.9375 0.1875 0  0.96875 0.1875 0  1 0.1875 0  0 0.21875 0  0.03125 0.21875 0  0.0625 0.21875 0  0.09375 0.21875 0  0.125 0.21875 0  0.15625 0.21875 0  0.1875 0.21875 0  0.21875 0.21875 0  0.25 0.21875 0  0.28125 0.21875 0  0.3125 0.21875 0  0.34375 0.21875 0  0.375 0.21875 0  0.40625 0.21875 0  0.4375 0.21875 0  0.46875 0.21875 0  0.5 0.21875 0  0.53125 0.21875 0  0.5625 0.21875 0  0.59375 0.21875 0  0.625 0.21875 0  0.65625 0.21875 0  0.6875 0.21875 0  0.71875 0.21875 0  0.75 0.21875 0  0.78125 0.21875 0  0.8125 0.21875 0  0.84375 0.21875 0  0.875 0.21875 0  0.90625 0.21875 0  0.9375 0.21875 0  0.96875 0.21875 0  1 0.21875 0  0 0.25 0  0.03125 0.25 0  0.0625 0.25 0  0.09375 0.25 0  0.125 0.25 0  0.15625 0.25 0  0.1875 0.25 0  0.21875 0.25 0  0.25 0.25 0  0.28125 0.25 0  0.3125 0.25 0  0.34375 0.25 0  0.375 0.25 0  0.40625 0.25 0  0.4375 0.25 0  0.46875 0.25 0  0.5 0.25 0  0.53125 0.25 0  0.5625 0.25 0  0.59375 0.25 0  0.625 0.25 0  0.65625 0.25 0  0.6875 0.25 0  0.71875 0.25 0  0.75 0.25 0  0.78125 0.25 0  0.8125 0.25 0  0.84375 0.25 0  0.875 0.25 0  0.90625 0.25 0  0.9375 0.25 0  0.96875 0.25 0  1 0.25 0  0 0.28125 0  0.03125 0.28125 0  0.0625 0.28125 0  0.09375 0.28125 0  0.125 0.28125 0  0.15625 0.28125 0  0.1875 0.28125 0  0.21875 0.28125 0  0.25 0.28125 0  0.28125 0.28125 0  0.3125 0.28125 0  0.34375 0.28125 0  0.375 0.28125 0  0.40625 0.28125 0  0.4375 0.28125 0  0.46875 0.28125 0  0.5 0.28125 0  0.53125 0.28125 0  0.5625 0.28125 0  0.59375 0.28125 0  0.625 0.28125 0  0.65625 0.28125 0  0.6875 0.28125 0  0.71875 0.28125 0  0.75 0.28125 0  0.78125 0.28125 0  0.8125 0.28125 0  0.84375 0.28125 0  0.875 0.28125 0  0.90625 0.28125 0  0.9375 0.28125 0  0.96875 0.28125 0  1 0.28125 0  0 0.3125 0  0.03125 0.3125 0  0.0625 0.3125 0  0.09375 0.3125 0  0.125 0.3125 0  0.15625 0.3125 0  0.1875 0.3125 0  0.21875 0.3125 0  0.25 0.3125 0  0.28125 0.3125 0  0.3125 0.3125 0  0.34375 0.3125 0  0.375 0.3125 0  0.40625 0.3125 0  0.4375 0.3125 0  0.46875 0.3125 0  0.5 0.3125 0  0.53125 0.3125 0  0.5625 0.3125 0  0.59375 0.3125 0  0.625 0.3125 0  0.65625 0.3125 0  0.6875 0.3125 0  0.71875 0.3125 0  0.75 0.3125 0  0.78125 0.3125 0  0.8125 0.3125 0  0.84375 0.3125 0  0.875 0.3125 0  0.90625 0.3125 0  0.9375 0.3125 0  0.96875 0.3125 0  1 0.3125 0  0 0.34375 0  0.03125 0.34375 0  0.0625 0.34375 0  0.09375 0.34375 0  0.125 0.34375 0  0.15625 0.34375 0  0.1875 0.34375 0  0.21875 0.34375 0  0.25 0.34375 0  0.28125 0.34375 0  0.3125 0.34375 0  0.34375 0.34375 0  0.375 0.34375 0  0.40625 0.34375 0  0.4375 0.34375 0  0.46875 0.34375 0  0.5 0.34375 0  0.53125 0.34375 0  0.5625 0.34375 0  0.59375 0.34375 0  0.625 0.34375 0  0.65625 0.34375 0  0.6875 0.34375 0  0.71875 0.34375 0  0.75 0.34375 0  0.78125 0.34375 0  0.8125 0.34375 0  0.84375 0.34375 0  0.875 0.34375 0  0.90625 0.34375 0  0.9375 0.34375 0  0.96875 0.34375 0  1 0.34375 0  0 0.375 0  0.03125 0.375 0  0.0625 0.375 0  0.09375 0.375 0  0.125 0.375 0  0.15625 0.375 0  0.1875 0.375 0  0.21875 0.375 0  0.25 0.375 0  0.28125 0.375 0  0.3125 0.375 0  0.34375 0.375 0  0.375 0.375 0  0.40625 0.375 0  0.4375 0.375 0  0.46875 0.375 0  0.5 0.375 0  0.53125 0.375 0  0.5625 0.375 0  0.59375 0.375 0  0.625 0.375 0  0.65625 0.375 0  0.6875 0.375 0  0.71875 0.375 0  0.75 0.375 0  0.78125 0.375 0  0.8125 0.375 0  0.84375 0.375 0  0.875 0.375 0  0.90625 0.375 0  0.9375 0.375 0  0.96875 0.375 0  1 0.375 0  0 0.40625 0  0.03125 0.40625 0  0.0625 0.40625 0  0.09375 0.40625 0  0.125 0.40625 0  0.15625 0.40625 0  0.1875 0.40625 0  0.21875 0.40625 0  0.25 0.40625 0  0.28125 0.40625 0  0.3125 0.40625 0  0.34375 0.40625 0  0.375 0.40625 0  0.40625 0.40625 0  0.4375 0.40625 0  0.46875 0.40625 0  0.5 0.40625 0  0.53125 0.40625 0  0.5625 0.40625 0  0.59375 0.40625 0  0.625 0.40625 0  0.65625 0.40625 0  0.6875 0.40625 0  0.71875 0.40625 0  0.75 0.40625 0  0.78125 0.40625 0  0.8125 0.40625 0  0.84375 0.40625 0  0.875 0.40625 0  0.90625 0.40625 0  0.9375 0.40625 0  0.96875 0.40625 0  1 0.40625 0  0 0.4375 0  0.03125 0.4375 0  0.0625 0.4375 0  0.09375 0.4375 0  0.125 0.4375 0  0.15625 0.4375 0  0.1875 0.4375 0  0.21875 0.4375 0  0.25 0.4375 0  0.28125 0.4375 0  0.3125 0.4375 0  0.34375 0.4375 0  0.375 0.4375 0  0.40625 0.4375 0  0.4375 0.4375 0  0.46875 0.4375 0  0.5 0.4375 0  0.53125 0.4375 0  0.5625 0.4375 0  0.59375 0.4375 0  0.625 0.4375 0  0.65625 0.4375 0  0.6875 0.4375 0  0.71875 0.4375 0  0.75 0.4375 0  0.78125 0.4375 0  0.8125 0.4375 0  0.84375 0.4375 0  0.875 0.4375 0  0.90625 0.4375 0  0.9375 0.4375 0  0.96875 0.4375 0  1 0.4375 0  0 0.46875 0  0.03125 0.46875 0  0.0625 0.46875 0  0.09375 0.46875 0  0.125 0.46875 0  0.15625 0.46875 0  0.1875 0.46875 0  0.21875 0.46875 0  0.25 0.46875 0  0.28125 0.46875 0  0.3125 0.46875 0  0.34375 0.46875 0  0.375 0.46875 0  0.40625 0.46875 0  0.4375 0.46875 0  0.46875 0.46875 0  0.5 0.46875 0  0.53125 0.46875 0  0.5625 0.46875 0  0.59375 0.46875 0  0.625 0.46875 0  0.65625 0.46875 0  0.6875 0.46875 0  0.71875 0.46875 0  0.75 0.46875 0  0.78125 0.46875 0  0.8125 0.46875 0  0.84375 0.46875 0  0.875 0.46875 0  0.90625 0.46875 0  0.9375 0.46875 0  0.96875 0.46875 0  1 0.46875 0  0 0.5 0  0.03125 0.5 0  0.0625 0.5 0  0.09375 0.5 0  0.125 0.5 0  0.15625 0.5 0  0.1875 0.5 0  0.21875 0.5 0  0.25 0.5 0  0.28125 0.5 0  0.3125 0.5 0  0.34375 0.5 0  0.375 0.5 0  0.40625 0.5 0  0.4375 0.5 0  0.46875 0.5 0  0.5 0.5 0  0.53125 0.5 0  0.5625 0.5 0  0.59375 0.5 0  0.625 0.5 0  0.65625 0.5 0  0.6875 0.5 0  0.71875 0.5 0  0.75 0.5 0  0.78125 0.5 0  0.8125 0.5 0  0.84375 0.5 0  0.875 0.5 0  0.90625 0.5 0  0.9375 0.5 0  0.96875 0.5 0  1 0.5 0  0 0.53125 0  0.03125 0.53125 0  0.0625 0.53125 0  0.09375 0.53125 0  0.125 0.53125 0  0.15625 0.53125 0  0.1875 0.53125 0  0.21875 0.53125 0  0.25 0.53125 0  0.28125 0.53125 0  0.3125 0.53125 0  0.34375 0.53125 0  0.375 0.53125 0  0.40625 0.53125 0  0.4375 0.53125 0  0.46875 0.53125 0  0.5 0.53125 0  0.53125 0.53125 0  0.5625 0.53125 0  0.59375 0.53125 0  0.625 0.53125 0  0.65625 0.53125 0  0.6875 0.53125 0  0.71875 0.53125 0  0.75 0.53125 0  0.78125 0.531
[...]
<PointData  Scalars="u_sol"> 
<DataArray  type="Float64"  Name="u_sol"  format="ascii">-4.9817808777207906e-05  -2.2905602843685617e-05  7.0446737602157593e-04  1.4085052923030195e-03  1.6336359620613620e-03  2.0080549036218653e-03  2.9489471281476114e-03  4.5142804124162573e-03  6.5158090739871636e-03  8.4304728209614061e-03  1.1686260515711751e-02  1.4742618877789911e-02  1.3485631520580913e-02  6.9038015063859742e-03  -2.9765758584919264e-03  -1.3005642654124636e-02  -2.0242147257376761e-02  -2.2492896535125203e-02  -1.8670379446705371e-02  -9.1207980983087217e-03  4.0516432591349580e-03  1.7305782753661906e-02  2.6647863783624267e-02  2.9227828044466154e-02  2.4733610156406998e-02  1.6125335866934508e-02  7.8511123708056522e-03  2.6480504060027413e-03  4.3558184774506175e-04  -2.1085694478080656e-04  -3.6129536951189453e-04  -3.2359208011930923e-04  2.3561973839217525e-05  -4.9703393877975166e-04  2.5089774361918816e-03  8.8263719296261256e-03  1.3847889604262174e-02  1.5689118419047306e-02  1.3757876796600158e-02  9.2624443831195880e-03  3.9651960906930839e-03  -5.8195726720754563e-03  -2.5673014203911406e-02  -5.9186174797501295e-02  -1.0382489541443081e-01  -1.5163674134646848e-01  -1.9469204352085598e-01  -2.2730518981102982e-01  -2.4611946287092845e-01  -2.4940802211375268e-01  -2.3655224209802991e-01  -2.0790116088578645e-01  -1.6521956725025519e-01  -1.1239435195981180e-01  -5.5847876153250528e-02  -3.4908039572804903e-03  3.7707216223885530e-02  6.3442361513395107e-02  7.1931656454012338e-02  6.4909395969823078e-02  4.8572374986836989e-02  3.0788906989967075e-02  1.6664771276877183e-02  7.2645000643513950e-03  1.6603518519176400e-03  -3.3628370750840824e-04  -7.9983418036008876e-04  3.9931808149046722e-03  1.1399039168915069e-02  1.5061376883867173e-02  1.4336771277441405e-02  1.0234834471952609e-02  -2.7540947771523910e-03  -3.2046256015431346e-02  -7.9642041269976621e-02  -1.4222234611794393e-01  -2.0916350351250110e-01  -2.6958843912386016e-01  -3.1757367079921794e-01  -3.5211479300170428e-01  -3.7447773163450099e-01  -3.8612422642321792e-01  -3.8778929014506147e-01  -3.7922769597191275e-01  -3.5923906878947443e-01  -3.2595597997947962e-01  -2.7793691012379546e-01  -2.1640254194081221e-01  -1.4772715745570034e-01  -8.2648562111711288e-02  -3.0105821088717535e-02  7.7453743259491073e-03  3.1280904502683289e-02  3.9731643956721581e-02  3.5252033480712132e-02  2.4195332690466167e-02  1.2702269186340969e-02  3.6763087071706945e-03  -6.7683971930924069e-04  -9.4853083066801566e-04  4.9360674219115367e-03  1.0989839423448186e-02  7.2135137028294868e-03  -5.8195703532375664e-03  -2.9519213759893304e-02  -6.8508152823004889e-02  -1.2774178381242196e-01  -2.0172421853305483e-01  -2.7307769092981543e-01  -3.3139912359764540e-01  -3.7455674544453571e-01  -4.0463039182685900e-01  -4.2432859627704178e-01  -4.3617535677426739e-01  -4.4222772542948247e-01  -4.4402722233785163e-01  -4.4239385492053052e-01  -4.3700788241453875e-01  -4.2565789195373110e-01  -4.0332836067416755e-01  -3.6269623584917726e-01  -2.9827023625247040e-01  -2.1463157498085331e-01  -1.3005890446934859e-01  -6.4581530115673066e-02  -2.2437245167318556e-02  3.2553179386290688e-03  1.5845160344304381e-02  1.6947649547846937e-02  1.1198728970766623e-02  3.6235048660590947e-03  -6.8536080502396859e-04  -8.6546910236436981e-04  4.8791213814795512e-03  5.1907711411445972e-03  -6.0695259245190075e-03  -3.0705279929199573e-02  -7.5364573706174998e-02  -1.4413031008840166e-01  -2.2463326178163801e-01  -2.9517882664303036e-01  -3.4746750342492416e-01  -3.8121133312194438e-01  -3.9987107737955513e-01  -4.0792998419789822e-01  -4.0993007213976224e-01  -4.0922128755106524e-01  -4.0783441793907854e-01  -4.0682263731567941e-01  -4.0685843491109946e-01  -4.0863316401029431e-01  -4.1259199412247943e-01  -4.1769770536532924e-01  -4.1837942510816883e-01  -4.0179055210603881e-01  -3.5108589412985641e-01  -2.6162402964011705e-01  -1.5698404188833612e-01  -7.4797958292081024e-02  -2.8148120522574462e-02  -4.7984605124089764e-03  5.1620590214887727e-03  5.8514094565185280e-03  2.0384042246771178e-03  -4.1012929651928223e-04  -1.7108728242107068e-04  1.8755469170407982e-03  -8.4134497449245543e-03  -3.5879445961038217e-02  -8.0960726902675806e-02  -1.5036106427225254e-01  -2.2925678612643033e-01  -2.9402493853225703e-01  -3.3798818470913455e-01  -3.6093210757767907e-01  -3.6849115368851482e-01  -3.6808631038147499e-01  -3.6566575539536972e-01  -3.6384472564006615e-01  -3.6297527601594054e-01  -3.6255661870201450e-01  -3.6214249554701500e-01  -3.6171848925794242e-01  -3.6166822143164279e-01  -3.6307683436438976e-01  -3.6776942179096495e-01  -3.7801257684355538e-01  -3.9253031204764494e-01  -3.9864096396997950e-01  -3.6873172755796763e-01  -2.8258940484400025e-01  -1.6383342355476210e-01  -6.9293732774454428e-02  -2.1875893470118243e-02  -3.5978735891608613e-03  1.6213784085795553e-03  1.0082527287397734e-03  -2.2601410368432403e-04  1.1322267181543679e-03  -4.5441373593916425e-03  -2.7782248550822425e-02  -6.7663500508191587e-02  -1.3120085763012776e-01  -2.0556356366541012e-01  -2.6748332056933621e-01  -3.0856978756607978e-01  -3.2634771452514233e-01  -3.2926861239837923e-01  -3.2741638950521385e-01  -3.2634253386755224e-01  -3.2696399991790703e-01  -3.2833079115876718e-01  -3.2971105140992457e-01  -3.3075208475263851e-01  -3.3149907969036246e-01  -3.3197238000778562e-01  -3.3234433772808680e-01  -3.3268452618042282e-01  -3.3333892157500250e-01  -3.3534886862936214e-01  -3.4212738009172816e-01  -3.5778162457791218e-01  -3.7546014922297039e-01  -3.6131326611923570e-01  -2.7833212863212520e-01  -1.4979626432749624e-01  -5.2285498833299672e-02  -1.1209355939367614e-02  4.5897557487842841e-05  6.9229227112660397e-04  -9.9946154907938278e-05  2.4238645682756136e-03  -1.2416905115986884e-02  -4.8229395507510840e-02  -1.0520429352321652e-01  -1.7454803921980369e-01  -2.3699528733736486e-01  -2.7865004616471006e-01  -2.9395973231238653e-01  -2.9481772833043979e-01  -2.9291910306147589e-01  -2.9258315078169256e-01  -2.9397629896825139e-01  -2.9586580107891691e-01  -2.9785902630629563e-01  -2.9960144081095580e-01  -3.0108615020002871e-01  -3.0218665747138534e-01  -3.0302090304947005e-01  -3.0366570949557831e-01  -3.0433416917643114e-01  -3.0517039378014893e-01  -3.0621679030606747e-01  -3.0747860023801055e-01  -3.1119695671892822e-01  -3.2433905108573952e-01  -3.4634418898207869e-01  -3.3900595059785060e-01  -2.5150310541028709e-01  -1.1651283783529280e-01  -2.9401081451340877e-02  -2.0500176814434506e-03  2.0340729395408731e-03  -4.7935670008968561e-04  3.7614815044164237e-03  -2.1478423534731627e-02  -6.9693995947503778e-02  -1.2955123666506124e-01  -1.9107671437863036e-01  -2.3509324756937802e-01  -2.5231146781515912e-01  -2.5569295883378729e-01  -2.5570135190323784e-01  -2.5652244509969535e-01  -2.5917977968741102e-01  -2.6230397747422596e-01  -2.6539904331260594e-01  -2.6798127078226658e-01  -2.7013648431628079e-01  -2.7190496208637416e-01  -2.7348712530382752e-01  -2.7496371176500134e-01  -2.7640080510978565e-01  -2.7779733129561707e-01  -2.7906036040728666e-01  -2.8016147643136258e-01  -2.8103197520052919e-01  -2.8149005132709526e-01  -2.8298925331233460e-01  -2.9430366321729706e-01  -3.1787967248035554e-01  -3.0654610135955135e-01  -2.0314059926856401e-01  -7.0707550482123530e-02  -8.7722344137496269e-03  4.7632781702157997e-04  7.3226394475797154e-05  4.7552599211791013e-03  -2.8381736386740773e-02  -8.0808016257060480e-02  -1.4038961559239213e-01  -1.9023532759300016e-01  -2.1563509697366762e-01  -2.2473050181094251e-01  -2.2530005946160067e-01  -2.2533777388091802e-01  -2.2809304317754300e-01  -2.3115875277454043e-01  -2.3390875344063380e-01  -2.3608148845380902e-01  -2.3807348234228190e-01  -2.3994331414284006e-01  -2.4174610951323916e-01  -2.4341171307308571e-01  -2.4497678099816089e-01  -2.4650992862736951e-01  -2.4810903732783607e-01  -2.4989142365599651e-01  -2.5179971656655714e-01  -2.5365856187116265e-01  -2.5498434739526643e-01  -2.5497198423407219e-01  -2.5511263964182668e-01  -2.6736029085033614e-01  -2.9106022496496464e-01  -2.6110269300621985e-01  -1.3468596991240223e-01  -2.7276995409151038e-02  1.0848540600523543e-03  3.1724374870419319e-04  4.9772016299943489e-03  -3.0857894823184611e-02  -8.4576545819170554e-02  -1.3496726566111303e-01  -1.6900781371285500e-01  -1.8415021048185121e-01  -1.8572459656611442e-01  -1.8684942852805475e-01  -1.9131490971532050e-01  -1.9519784506118162e-01  -1.9866373904848147e-01  -2.0178862215256715e-01  -2.0484355914076999e-01  -2.0765223626234350e-01  -2.1013266727010943e-01  -2.1234334310780875e-01  -2.1441875216001469e-01  -2.1644560509258920e-01  -2.1843299829269991e-01  -2.2038415873153178e-01  -2.2222034878515118e-01  -2.2394290622658414e-01  -2.2552489981930587e-01  -2.2720463168016009e-01  -2.2865610321166949e-01  -2.2792925146355189e-01  -2.2755734337644354e-01  -2.4427396486248970e-01  -2.6142320231405802e-01  -1.9362280107614432e-01  -5.8580099479803152e-02  -6.3300665428833594e-04  -1.1246117066965225e-03  5.0700296209961557e-03  -2.9611574665958224e-02  -7.7729962941670366e-02  -1.1914192257373622e-01  -1.4469845009980892e-01  -1.5293577156351335e-01  -1.5761551669713608e-01  -1.6184935643377210e-01  -1.6466015156999142e-01  -1.6804507611828842e-01  -1.7126251797414332e-01  -1.7405935083459878e-01  -1.7640567998254533e-01  -1.7843367232750429e-01  -1.8045842609432020e-01  -1.8254593111980991e-01  -1.8463021025275167e-01  -1.8667436690604045e-01  -1.8871666205403598e-01  -1.9080951131615706e-01  -1.9302612655943890e-01  -1.9536505427496959e-01  -1.9762549949200506e-01  -1.9927325791969153e-01  -2.0063250039121372e-01  -2.0194021075035593e-01  -2.0001382770932713e-01  -2.0203764756241474e-01  -2.2495491286847341e-01  -2.1560491629600492e-01  -1.0098606082579888e-01  -1.0006330056638060e-02  8.4195633177105728e-04  4.3166079278031634e-03  -2.4629713583053568e-02  -6.6072390405691170e-02  -9.7055459231067634e-02  -1.1291541818006960e-01  -1.1998948530788289e-01  -1.2239767198753061e-01  -1.2566150401510046e-01  -1.3114950387871635e-01  -1.3532200508024106e-01  -1.3870122459157300e-01  -1.4176428363299587e-01  -1.4472461689574032e-01  -1.4771840159055052e-01  -1.5058938461607974e-01  -1.5317547930660311e-01  -1.5562712053922834e-01  -1.5804978686858637e-01  -1.6047816441134466e-01  -1.6286442325687242e-01  -1.6514045025381130e-01  -1.6726580509819103e-01  -1.6944979053421019e-01  -1.7179862100658250e-01  -1.7343025386806438e-01  -1.7457301970573860e-01  -1.7494748680630445e-01  -1.7176537647739068e-01  -1.8213277743367781e-01  -2.0076535151438202e-01  -1.3389433722266653e-01  -1.7144107105248895e-02  5.6290153997971262e-03  3.6539697655315036e-03  -1.7643963056555897e-02  -4.9438589119131196e-02  -7.2568725724001887e-02  -8.6277429444299558e-02  -9.1339875243260538e-02  -9.7368457307284079e-02  -1.0313107323306678e-01  -1.0604954352757739e-01  -1.0908441484707053e-01  -1.1217057647534819e-01  -1.1487058334974153e-01  -1.1735087292163675e-01  -1.1953994840934429e-01  -1.2153528368819237e-01  -1.2367923007340755e-01  -1.2601854773663895e-01  -1.2843527347322517e-01  -1.3092943589500775e-01  -1.3352611706667888e-01  -1.3628119493924992e-01  -1.3909929668692519e-01  -1.4169658241457972e-01  -1.4405179316080327e-01  -1.4633624457519007e-01  -1.4785985566861271e-01  -1.4914458003975961e-01  -1.4718243365038267e-01  -1.4714722615232820e-01  -1.6762527108986328e-01  -1.4454557638429433e-01  -3.1792178657619886e-02  9.8339041404769695e-03  2.2923548704955584e-03  -9.3466629950288514e-03  -3.2499503849203436e-02  -4.8037899286855985e-02  -5.5772509967402240e-02  -6.1563246004597678e-02  -6.4758702255698561e-02  -6.7696145188069975e-02  -7.2743960206582955e-02  -7.6672956573469869e-02  -7.9709120949543216e-02  -8.2580125640408855e-02  -8.5400156993373319e-02  -8.8172709349652253e-02  -9.1125259623390797e-02  -9.4053211717058591e-02  -9.6809855443328263e-02  -9.9562124870781019e-02  -1.0241115998015797e-01  -1.0531262448130810e-01  -1.0819796801105047e-01  -1.1109224876762938e-01  -1.1406004035106387e-01  -1.1696966690290428e-01  -1.1973112435293447e-01  -1.2172491347502770e-01  -1.2330254815539189e-01  -1.2375146776432484e-01  -1.2010631021669216e-01  -1.3283646510381494e-01  -1.3583267312041986e-01  -4.6155666117736999e-02  1.1868740607864102e-02  1.2157366153914774e-03  -9.2587756655032919e-04  -1.4004959422770550e-02  -2.3810980520083246e-02  -3.1745291911404308e-02  -3.5776704245860713e-02  -4.1539998228349119e-02  -4.6914527226105507e-02  -4.9122054064444240e-02  -5.1455172270211118e-02  -5.4107483214044731e-02  -5.6525676859946548e-02  -5.8707628848927232e-02  -6.0825322267493133e-02  -6.2861295734065348e-02  -6.4856983817388886e-02  -6.7201574003236939e-02  -6.9913453457573702e-02  -7.2842477310970669e-02  -7.6010481826255485e-02  -7.9431126896894619e-02  -8.2995437234368474e-02  -8.6569250591724739e-02  -8.9900397539113178e-02  -9.3223682415018078e-02  -9.6401962523181770e-02  -9.8371113734990856e-02  -1.0028335852734940e-01  -9.7751885921393181e-02  -1.0264149779001773e-01  -1.1713602986439203e-01  -5.4690273880473331e-02  1.2252172493324998e-02  -4.4888593456663019e-04  7.3358525532315052e-03  3.0595571954106578e-03  -9.3926408745783707e-04  -3.4153921060304615e-03  -8.0654860525675234e-03  -1.0283801410464520e-02  -1.1933445621417177e-02  -1.6012667238795308e-02  -1.9268996402442479e-02  -2.1658257955056010e-02  -2.3969877095335067e-02  -2.6345581626586938e-02  -2.8833931400610625e-02  -3.1454001215464364e-02  -3.4396634211861642e-02  -3.7519742467544685e-02  -4.0605550772525485e-02  -4.3862500394107405e-02  -4.7370932599652665e-02  -5.1071995070554606e-02  -5.4939218372020669e-02  -5.9043433553047156e-02  -6.3336415865820228e-02  -6.7319423982986903e-02  -7.1259988252123985e-02  -7.4432006230818026e-02  -7.7349896622529710e-02  -7.7379122469815348e-02  -7.8277809994539080e-02  -9.5116388551746339e-02  -5.5584782122087902e-02  1.1157184006033060e-02  -1.6422204639687621e-03  1.4732025364483823e-02  2.0771677945365202e-02  2.1634685447000698e-02  1.8724253592720064e-02  1.6227400963685999e-02  1.1715970572614710e-02  7.3916809118956366e-03  6.4235276173762379e-03  5.0698986133810662e-03  3.1998703993167065e-03  1.4214703400594879e-03  -2.3635353565678566e-04  -1.9149487050149595e-03  -3.7069206303904510e-03  -5.6803037816159987e-03  -7.8368849008475412e-03  -1.0565719303790163e-02  -1.3953642501033151e-02  -1.7746877301832078e-02  -2.2004798681067833e-02  -2.6660523985048604e-02  -3.1508859215342758e-02  -3.6493683043396258e-02  -4.1570752035055954e-02  -4.6728132021648723e-02  -5.1275124163645575e-02  -5.5258408853850374e-02  -5.8102490225702047e-02  -5.8026613509782110e-02  -7.4330077990337418e-02  -5.1860114547167664e-02  9.4047943547463375e-03  -3.3510611582792693e-03  2.0905259631368057e-02  3.6467232271088196e-02  4.2877420855863359e-02  4.6193027718834538e-02  4.3174082514997471e-02  4.2557832646079416e-02  4.2399972009726491e-02  3.9510290743953243e-02  3.7293486838429764e-02  3.5911021655714644e-02  3.4471642773228971e-02  3.2852976625160915e-02  3.0981145531224021e-02  2.8788768140669396e-02  2.6211364973877972e-02  2.3100593291810082e-02  1.9548543811022379e-02  1.5786839817119241e-02  1.1670285571005870e-02  6.9863130115735139e-03  1.8763644924976082e-03  -3.7731025739581952e-03  -9.8613244215045096e-03  -1.6092156332444030e-02  -2.2306753780352694e-02  -2.8677715517668539e-02  -3.4146509563727286e-02  -3.9560622021691860e-02  -4.0995505790751188e-02  -5.6013579950367279e-02  -4.5493141802733589e-02  7.4415254323721503e-03  -4.2123592286534344e-03  2.5046385388383920e-02  5.2096178490593767e-02  6.3896786405030701e-02  6.7402965870764206e-02  6.7186442102234831e-02  6.3724006823480062e-02  6.0589550696598438e-02  6.1105007802181588e-02  6.0987568958273196e-02  6.0173509369674374e-02  5.9384551008667831e-02  5.8594600429731435e-02  5.7666092663855403e-02  5.6434270277442244e-02  5.4848525417104464e-02  5.2742800907819500e-02  5.0143704672563016e-02  4.6660799148964316e-02  4.2153268102069277e-02  3.6856214679530534e-02  3.0934364539682648e-02  2.4307202386074409e-02  1.7300160687319956e-02  9.5996324661703457e-03  1.7528873982986814e-03  -6.4090326180317528e-03  -1.3777505697400124e-02  -2.1812938682813532e-02  -2.5804853850198671e-02  -4.0893721143371996e-02  -3.9089149491028798e-02  5.7674655993457226e-03  -5.4415467712676932e-03  2.6397600698437877e-02  6.4048270686831429e-02  8.3189713343433780e-02  9.4402208927635858e-02  9.4309159802996020e-02  9.5019732582523386e-02  9.6114789515602192e-02  9.4276921177797610e-02  9.3483416088764371e-02  9.3413953531951421e-02  9.3250889700397702e-02  9.2727524635946357e-02  9.1877172690977088e-02  9.0451594961522400e-02  8.8465658308016545e-02  8.5698905132263067e-02  8.2138778566398132e-02  7.7708067722342469e-02  7.2767228784183666e-02  6.7146980423844954e-02  6.0579963339493254e-02  5.2980973328127907e-02  4.4656546591289641e-02  3.5483730330602314e-02  2.6080939318513990e-02  1.5742951718460619e-02  6.0625401781500762e-03  -4.6644685637474729e-03  -1.2235999156434089e-02  -2.8161863404019372e-02  -3.3022507174822295e-02  4.3395609140237899e-03  -5.0678100202112214e-03  2.4610212887279846e-02  7.3530900541793745e-02  1.0102751855554207e-01  1.1371462562697404e-01  1.1849719324693235e-01  1.1553993654085885e-01  1.1332487726885371e-01  1.1526189727445471e-01  1.1657151437939239e-01  1.1713224439790834e-01  1.1778822851447525e-01  1.1829806177470593e-01  1.1857632759349741e-01  1.1833386567587126e-01  1.1748907171947451e-01  1.1582793075503815e-01  1.1333083375426595e-01  1.0978775219142171e-01  1.0504451754868023e-01  9.8674267002418603e-02  9.1086860924375915e-02  8.2512249394407364e-02  7.2964547098910218e-02  6.2080472553781511e-02  5.0604040059236029e-02  3.8072647116685239e-02  2.5763514859204303e-02  1.1997851444957968e-02  5.5037526776669020e-04  -1.7718374099465920e-02  -2.8276056298744429e-02  3.2816170203988733e-03  -5.2070456398795994e-03  1.9916371106002126e-02  7.5373502743878926e-02  1.1497627796635677e-01  1.3788055368482821e-01  1.4503064301191076e-01  1.4801820793736367e-01  1.4959612033046338e-01  1.4843849819690566e-01  1.4935582842910924e-01  1.5110932642425748e-01  1.5274594462933627e-01  1.5391437296677335e-01  1.5458011847835018e-01  1.5446864175875430e-01  1.5349552728055602e-01  1.5141011331306439e-01  1.4817247946230080e-01  1.4357959684221405e-01  1.3774689329874887e-01  1.3075700549402514e-01  1.2282621476107666e-01  1.1322383525055180e-01  1.0198430997910975e-01  8.9494480916302716e-02  7.6016779453654246e-02  6.0915494130785383e-02  4.5646483361383626e-02  2.8522177112328843e-02  1.2504600801763469e-02  -8.6079664735005078e-03  -2.4347012877895015e-02  2.3973116223415503e-03  -2.8427129915305593e-03  1.4466354151495390e-02  7.1257942052229559e-02  1.2300860236819183e-01  1.5068562135186131e-01  1.6647671780685483e-01  1.6714021608651858e-01  1.6580679250798908e-01  1.6894103030309718e-01  1.7156512769274054e-01  1.7408850179335822e-01  1.7684129575662064e-01  1.7943998270453748e-01  1.8156656239672625e-01  1.8294564302971028e-01  1.8337698202179964e-01  1.8264115353214838e-01  1.8061968125551289e-01  1.7712918396928415e-01  1.7210571109869563e-01  1.6519669548304661e-01  1.5619480170787231e-01  1.4504837738280027e-01  1.3263593974839633e-01  1.1841828891783664e-01  1.0232908327305489e-01  8.4727443859809501e-02  6.6171497780837668e-02  4.5130632568463162e-02  2.4257171786187904e-02  -8.4259622723254293e-04  -2.1738864294346096e-02  1.7525377271030741e-03  -2.8637465328267215e-03  9.0173724296796313e-03  5.7401981993585753e-02  1.2127616803021060e-01  1.6519986367624731e-01  1.8638630146304622e-01  1.9890950043804975e-01  2.0247337987073971e-01  2.0188090344833834e-01  2.0470701339612452e-01  2.0890070199401839e-01  2.1318966734412792e-01  2.1700330875120924e-01  2.2006217030583147e-01  2.2202835729428488e-01  2.2269572271905849e-0