<?xml version="1.0"?>
<VTKFile type="UnstructuredGrid"  version="0.1"  >
<UnstructuredGrid>
<Piece  NumberOfPoints="1089" NumberOfCells="1024">
<Points>
<DataArray  type="Float64"  NumberOfComponents="3"  format="ascii">0 0 0  0.03125 0 0  0.0625 0 0  0.09375 0 0  0.125 0 0  0.15625 0 0  0.1875 0 0  0.21875 0 0  0.25 0 0  0.28125 0 0  0.3125 0 0  0.34375 0 0  0.375 0 0  0.40625 0 0  0.4375 0 0  0.46875 0 0  0.5 0 0  0.53125 0 0  0.5625 0 0  0.59375 0 0  0.625 0 0  0.65625 0 0  0.6875 0 0  0.71875 0 0  0.75 0 0  0.78125 0 0  0.8125 0 0  0.84375 0 0  0.875 0 0  0.90625 0 0  0.9375 0 0  0.96875 0 0  1 0 0  0 0.03125 0  0.03125 0.03125 0  0.0625 0.03125 0  0.09375 0.03125 0  0.125 0.03125 0  0.15625 0.03125 0  0.1875 0.03125 0  0.21875 0.03125 0  0.25 0.03125 0  0.28125 0.03125 0  0.3125 0.03125 0  0.34375 0.03125 0  0.375 0.03125 0  0.40625 0.03125 0  0.4375 0.03125 0  0.46875 0.03125 0  0.5 0.03125 0  0.53125 0.03125 0  0.5625 0.03125 0  0.59375 0.03125 0  0.625 0.03125 0  0.65625 0.03125 0  0.6875 0.03125 0  0.71875 0.03125 0  0.75 0.03125 0  0.78125 0.03125 0  0.8125 0.03125 0  0.84375 0.03125 0  0.875 0.03125 0  0.90625 0.03125 0  0.9375 0.03125 0  0.96875 0.03125 0  1 0.03125 0  0 0.0625 0  0.03125 0.0625 0  0.0625 0.0625 0  0.09375 0.0625 0  0.125 0.0625 0  0.15625 0.0625 0  0.1875 0.0625 0  0.21875 0.0625 0  0.25 0.0625 0  0.28125 0.0625 0  0.3125 0.0625 0  0.34375 0.0625 0  0.375 0.0625 0  0.40625 0.0625 0  0.4375 0.0625 0  0.46875 0.0625 0  0.5 0.0625 0  0.53125 0.0625 0  0.5625 0.0625 0  0.59375 0.0625 0  0.625 0.0625 0  0.65625 0.0625 0  0.6875 0.0625 0  0.71875 0.0625 0  0.75 0.0625 0  0.78125 0.0625 0  0.8125 0.0625 0  0.84375 0.0625 0  0.875 0.0625 0  0.90625 0.0625 0  0.9375 0.0625 0  0.96875 0.0625 0  1 0.0625 0  0 0.09375 0  0.03125 0.09375 0  0.0625 0.09375 0  0.09375 0.09375 0  0.125 0.09375 0  0.15625 0.09375 0  0.1875 0.09375 0  0.21875 0.09375 0  0.25 0.09375 0  0.28125 0.09375 0  0.3125 0.09375 0  0.34375 0.09375 0  0.375 0.09375 0  0.40625 0.09375 0  0.4375 0.09375 0  0.46875 0.09375 0  0.5 0.09375 0  0.53125 0.09375 0  0.5625 0.09375 0  0.59375 0.09375 0  0.625 0.09375 0  0.65625 0.09375 0  0.6875 0.09375 0  0.71875 0.09375 0  0.75 0.09375 0  0.78125 0.09375 0  0.8125 0.09375 0  0.84375 0.09375 0  0.875 0.09375 0  0.90625 0.09375 0  0.9375 0.09375 0  0.96875 0.09375 0  1 0.09375 0  0 0.125 0  0.03125 0.125 0  0.0625 0.125 0  0.09375 0.125 0  0.125 0.125 0  0.15625 0.125 0  0.1875 0.125 0  0.21875 0.125 0  0.25 0.125 0  0.28125 0.125 0  0.3125 0.125 0  0.34375 0.125 0  0.375 0.125 0  0.40625 0.125 0  0.4375 0.125 0  0.46875 0.125 0  0.5 0.125 0  0.53125 0.125 0  0.5625 0.125 0  0.59375 0.125 0  0.625 0.125 0  0.65625 0.125 0  0.6875 0.125 0  0.71875 0.125 0  0.75 0.125 0  0.78125 0.125 0  0.8125 0.125 0  0.84375 0.125 0  0.875 0.125 0  0.90625 0.125 0  0.9375 0.125 0  0.96875 0.125 0  1 0.125 0  0 0.15625 0  0.03125 0.15625 0  0.0625 0.15625 0  0.09375 0.15625 0  0.125 0.15625 0  0.15625 0.15625 0  0.1875 0.15625 0  0.21875 0.15625 0  0.25 0.15625 0  0.28125 0.15625 0  0.3125 0.15625 0  0.34375 0.15625 0  0.375 0.15625 0  0.40625 0.15625 0  0.4375 0.15625 0  0.46875 0.15625 0  0.5 0.15625 0  0.53125 0.15625 0  0.5625 0.15625 0  0.59375 0.15625 0  0.625 0.15625 0  0.65625 0.15625 0  0.6875 0.15625 0  0.71875 0.15625 0  0.75 0.15625 0  0.78125 0.15625 0  0.8125 0.15625 0  0.84375 0.15625 0  0.875 0.15625 0  0.90625 0.15625 0  0.9375 0.15625 0  0.96875 0.15625 0  1 0.15625 0  0 0.1875 0  0.03125 0.1875 0  0.0625 0.1875 0  0.09375 0.1875 0  0.125 0.1875 0  0.15625 0.1875 0  0.1875 0.1875 0  0.21875 0.1875 0  0.25 0.1875 0  0.28125 0.1875 0  0.3125 0.1875 0  0.34375 0.1875 0  0.375 0.1875 0  0.40625 0.1875 0  0.4375 0.1875 0  0.46875 0.1875 0  0.5 0.1875 0  0.53125 0.1875 0  0.5625 0.1875 0  0.59375 0.1875 0  0.625 0.1875 0  0.65625 0.1875 0  0.6875 0.1875 0  0.71875 0.1875 0  0.75 0.1875 0  0.78125 0.1875 0  0.8125 0.1875 0  0.84375 0.1875 0  0.875 0.1875 0  0.90625 0.1875 0  0.9375 0.1875 0  0.96875 0.1875 0  1 0.1875 0  0 0.21875 0  0.03125 0.21875 0  0.0625 0.21875 0  0.09375 0.21875 0  0.125 0.21875 0  0.15625 0.21875 0  0.1875 0.21875 0  0.21875 0.21875 0  0.25 0.21875 0  0.28125 0.21875 0  0.3125 0.21875 0  0.34375 0.21875 0  0.375 0.21875 0  0.40625 0.21875 0  0.4375 0.21875 0  0.46875 0.21875 0  0.5 0.21875 0  0.53125 0.21875 0  0.5625 0.21875 0  0.59375 0.21875 0  0.625 0.21875 0  0.65625 0.21875 0  0.6875 0.21875 0  0.71875 0.21875 0  0.75 0.21875 0  0.78125 0.21875 0  0.8125 0.21875 0  0.84375 0.21875 0  0.875 0.21875 0  0.90625 0.21875 0  0.9375 0.21875 0  0.96875 0.21875 0  1 0.21875 0  0 0.25 0  0.03125 0.25 0  0.0625 0.25 0  0.09375 0.25 0  0.125 0.25 0  0.15625 0.25 0  0.1875 0.25 0  0.21875 0.25 0  0.25 0.25 0  0.28125 0.25 0  0.3125 0.25 0  0.34375 0.25 0  0.375 0.25 0  0.40625 0.25 0  0.4375 0.25 0  0.46875 0.25 0  0.5 0.25 0  0.53125 0.25 0  0.5625 0.25 0  0.59375 0.25 0  0.625 0.25 0  0.65625 0.25 0  0.6875 0.25 0  0.71875 0.25 0  0.75 0.25 0  0.78125 0.25 0  0.8125 0.25 0  0.84375 0.25 0  0.875 0.25 0  0.90625 0.25 0  0.9375 0.25 0  0.96875 0.25 0  1 0.25 0  0 0.28125 0  0.03125 0.28125 0  0.0625 0.28125 0  0.09375 0.28125 0  0.125 0.28125 0  0.15625 0.28125 0  0.1875 0.28125 0  0.21875 0.28125 0  0.25 0.28125 0  0.28125 0.28125 0  0.3125 0.28125 0  0.34375 0.28125 0  0.375 0.28125 0  0.40625 0.28125 0  0.4375 0.28125 0  0.46875 0.28125 0  0.5 0.28125 0  0.53125 0.28125 0  0.5625 0.28125 0  0.59375 0.28125 0  0.625 0.28125 0  0.65625 0.28125 0  0.6875 0.28125 0  0.71875 0.28125 0  0.75 0.28125 0  0.78125 0.28125 0  0.8125 0.28125 0  0.84375 0.28125 0  0.875 0.28125 0  0.90625 0.28125 0  0.9375 0.28125 0  0.96875 0.28125 0  1 0.28125 0  0 0.3125 0  0.03125 0.3125 0  0.0625 0.3125 0  0.09375 0.3125 0  0.125 0.3125 0  0.15625 0.3125 0  0.1875 0.3125 0  0.21875 0.3125 0  0.25 0.3125 0  0.28125 0.3125 0  0.3125 0.3125 0  0.34375 0.3125 0  0.375 0.3125 0  0.40625 0.3125 0  0.4375 0.3125 0  0.46875 0.3125 0  0.5 0.3125 0  0.53125 0.3125 0  0.5625 0.3125 0  0.59375 0.3125 0  0.625 0.3125 0  0.65625 0.3125 0  0.6875 0.3125 0  0.71875 0.3125 0  0.75 0.3125 0  0.78125 0.3125 0  0.8125 0.3125 0  0.84375 0.3125 0  0.875 0.3125 0  0.90625 0.3125 0  0.9375 0.3125 0  0.96875 0.3125 0  1 0.3125 0  0 0.34375 0  0.03125 0.34375 0  0.0625 0.34375 0  0.09375 0.34375 0  0.125 0.34375 0  0.15625 0.34375 0  0.1875 0.34375 0  0.21875 0.34375 0  0.25 0.34375 0  0.28125 0.34375 0  0.3125 0.34375 0  0.34375 0.34375 0  0.375 0.34375 0  0.40625 0.34375 0  0.4375 0.34375 0  0.46875 0.34375 0  0.5 0.34375 0  0.53125 0.34375 0  0.5625 0.34375 0  0.59375 0.34375 0  0.625 0.34375 0  0.65625 0.34375 0  0.6875 0.34375 0  0.71875 0.34375 0  0.75 0.34375 0  0.78125 0.34375 0  0.8125 0.34375 0  0.84375 0.34375 0  0.875 0.34375 0  0.90625 0.34375 0  0.9375 0.34375 0  0.96875 0.34375 0  1 0.34375 0  0 0.375 0  0.03125 0.375 0  0.0625 0.375 0  0.09375 0.375 0  0.125 0.375 0  0.15625 0.375 0  0.1875 0.375 0  0.21875 0.375 0  0.25 0.375 0  0.28125 0.375 0  0.3125 0.375 0  0.34375 0.375 0  0.375 0.375 0  0.40625 0.375 0  0.4375 0.375 0  0.46875 0.375 0  0.5 0.375 0  0.53125 0.375 0  0.5625 0.375 0  0.59375 0.375 0  0.625 0.375 0  0.65625 0.375 0  0.6875 0.375 0  0.71875 0.375 0  0.75 0.375 0  0.78125 0.375 0  0.8125 0.375 0  0.84375 0.375 0  0.875 0.375 0  0.90625 0.375 0  0.9375 0.375 0  0.96875 0.375 0  1 0.375 0  0 0.40625 0  0.03125 0.40625 0  0.0625 0.40625 0  0.09375 0.40625 0  0.125 0.40625 0  0.15625 0.40625 0  0.1875 0.40625 0  0.21875 0.40625 0  0.25 0.40625 0  0.28125 0.40625 0  0.3125 0.40625 0  0.34375 0.40625 0  0.375 0.40625 0  0.40625 0.40625 0  0.4375 0.40625 0  0.46875 0.40625 0  0.5 0.40625 0  0.53125 0.40625 0  0.5625 0.40625 0  0.59375 0.40625 0  0.625 0.40625 0  0.65625 0.40625 0  0.6875 0.40625 0  0.71875 0.40625 0  0.75 0.40625 0  0.78125 0.40625 0  0.8125 0.40625 0  0.84375 0.40625 0  0.875 0.40625 0  0.90625 0.40625 0  0.9375 0.40625 0  0.96875 0.40625 0  1 0.40625 0  0 0.4375 0  0.03125 0.4375 0  0.0625 0.4375 0  0.09375 0.4375 0  0.125 0.4375 0  0.15625 0.4375 0  0.1875 0.4375 0  0.21875 0.4375 0  0.25 0.4375 0  0.28125 0.4375 0  0.3125 0.4375 0  0.34375 0.4375 0  0.375 0.4375 0  0.40625 0.4375 0  0.4375 0.4375 0  0.46875 0.4375 0  0.5 0.4375 0  0.53125 0.4375 0  0.5625 0.4375 0  0.59375 0.4375 0  0.625 0.4375 0  0.65625 0.4375 0  0.6875 0.4375 0  0.71875 0.4375 0  0.75 0.4375 0  0.78125 0.4375 0  0.8125 0.4375 0  0.84375 0.4375 0  0.875 0.4375 0  0.90625 0.4375 0  0.9375 0.4375 0  0.96875 0.4375 0  1 0.4375 0  0 0.46875 0  0.03125 0.46875 0  0.0625 0.46875 0  0.09375 0.46875 0  0.125 0.46875 0  0.15625 0.46875 0  0.1875 0.46875 0  0.21875 0.46875 0  0.25 0.46875 0  0.28125 0.46875 0  0.3125 0.46875 0  0.34375 0.46875 0  0.375 0.46875 0  0.40625 0.46875 0  0.4375 0.46875 0  0.46875 0.46875 0  0.5 0.46875 0  0.53125 0.46875 0  0.5625 0.46875 0  0.59375 0.46875 0  0.625 0.46875 0  0.65625 0.46875 0  0.6875 0.46875 0  0.71875 0.46875 0  0.75 0.46875 0  0.78125 0.46875 0  0.8125 0.46875 0  0.84375 0.46875 0  0.875 0.46875 0  0.90625 0.46875 0  0.9375 0.46875 0  0.96875 0.46875 0  1 0.46875 0  0 0.5 0  0.03125 0.5 0  0.0625 0.5 0  0.09375 0.5 0  0.125 0.5 0  0.15625 0.5 0  0.1875 0.5 0  0.21875 0.5 0  0.25 0.5 0  0.28125 0.5 0  0.3125 0.5 0  0.34375 0.5 0  0.375 0.5 0  0.40625 0.5 0  0.4375 0.5 0  0.46875 0.5 0  0.5 0.5 0  0.53125 0.5 0  0.5625 0.5 0  0.59375 0.5 0  0.625 0.5 0  0.65625 0.5 0  0.6875 0.5 0  0.71875 0.5 0  0.75 0.5 0  0.78125 0.5 0  0.8125 0.5 0  0.84375 0.5 0  0.875 0.5 0  0.90625 0.5 0  0.9375 0.5 0  0.96875 0.5 0  1 0.5 0  0 0.53125 0  0.03125 0.53125 0  0.0625 0.53125 0  0.09375 0.53125 0  0.125 0.53125 0  0.15625 0.53125 0  0.1875 0.53125 0  0.21875 0.53125 0  0.25 0.53125 0  0.28125 0.53125 0  0.3125 0.53125 0  0.34375 0.53125 0  0.375 0.53125 0  0.40625 0.53125 0  0.4375 0.53125 0  0.46875 0.53125 0  0.5 0.53125 0  0.53125 0.53125 0  0.5625 0.53125 0  0.59375 0.53125 0  0.625 0.53125 0  0.65625 0.53125 0  0.6875 0.53125 0  0.71875 0.53125 0  0.75 0.53125 0  0.78125 0.531
[...]
<PointData  Scalars="u_sol"> 
<DataArray  type="Float64"  Name="u_sol"  format="ascii">-6.1907521084369774e-05  -6.7330235671048304e-05  4.6765803942885490e-04  1.0116662212007810e-03  1.2468123003980169e-03  1.4384660145964402e-03  2.0398738186081489e-03  3.4163110055286604e-03  5.2968592469025480e-03  7.8676027528157312e-03  1.2294421997263076e-02  1.6962603926085378e-02  1.7549142786948052e-02  1.1883122066724204e-02  1.3966126718067669e-03  -1.0508531659243517e-02  -2.0176980351854112e-02  -2.4147860576182754e-02  -1.9881097256149859e-02  -7.7218760652805413e-03  9.3542857160919465e-03  2.6420914550350064e-02  3.7792133607620237e-02  3.7719771709976271e-02  2.6820902441873223e-02  1.4379484684901838e-02  5.7791274647386558e-03  1.3616309514879580e-03  -1.3803352041613466e-05  -3.4004205184045487e-04  -3.4841093917849263e-04  -2.4504517150476991e-04  -2.4574239938134577e-07  -3.6953099365003142e-04  1.8573785051237764e-03  6.6881352637561432e-03  1.0907674721270568e-02  1.2783269908934601e-02  1.2929116177979393e-02  1.2215997376062089e-02  9.8495360699403459e-03  1.8863744539808856e-03  -1.7157272472969703e-02  -4.9339584535400507e-02  -9.0777508150434824e-02  -1.3397276800431185e-01  -1.7190132065862521e-01  -1.9983852559022136e-01  -2.1507218424093755e-01  -2.1630025330685962e-01  -2.0363398513341585e-01  -1.7833004865886140e-01  -1.4186941050539698e-01  -9.6769158722609480e-02  -4.7304019375505116e-02  3.7261919699797141e-04  3.9751069314086437e-02  6.3559007570767545e-02  6.6875087934947258e-02  5.5441449530064121e-02  3.8664636399305549e-02  2.2963429204229606e-02  1.1733195316217991e-02  4.7528287238539557e-03  9.9566738348944896e-04  -2.0983135604233253e-04  -6.2980804235954939e-04  3.2849939737464979e-03  1.0027123795499823e-02  1.3940127980881263e-02  1.3380047101828824e-02  9.1542265842332066e-03  -1.3108539216123488e-03  -2.6424842797934518e-02  -6.9661821116290698e-02  -1.2467320043696647e-01  -1.8246707367197512e-01  -2.3556027460504753e-01  -2.7912814980805434e-01  -3.1123552683392941e-01  -3.3191000843013452e-01  -3.4204950936319101e-01  -3.4248513512516893e-01  -3.3323639177660042e-01  -3.1369948835417338e-01  -2.8345429490447044e-01  -2.4242307056460671e-01  -1.9161270472792533e-01  -1.3412743535145372e-01  -7.5846821012682697e-02  -2.4190666083508967e-02  1.3146834229182711e-02  3.1542799588800047e-02  3.4512379904391946e-02  2.8146355656238967e-02  1.8118543483164707e-02  9.1011456408049401e-03  2.4643071657733141e-03  -4.1204182306970113e-04  -8.2866020300259916e-04  4.6077322063984745e-03  1.1278293136056513e-02  1.0677759491032723e-02  3.0135792713934105e-03  -1.5205458297006896e-02  -5.3076691868475620e-02  -1.1018996265446393e-01  -1.7611750456949296e-01  -2.4026718637604627e-01  -2.9553010671144841e-01  -3.3929838466680212e-01  -3.7204439876325918e-01  -3.9533723909826113e-01  -4.1065172460583904e-01  -4.1893225045528448e-01  -4.2065862744738225e-01  -4.1615706318061924e-01  -4.0523327264429831e-01  -3.8661104527097906e-01  -3.5819631154229387e-01  -3.1758588844551255e-01  -2.6334521328097171e-01  -1.9704463688950546e-01  -1.2554091734329761e-01  -6.0481710642157661e-02  -1.4746801973441789e-02  7.9720650324634421e-03  1.6048574738790202e-02  1.5202532547813218e-02  9.2247392591652041e-03  2.8702690576907024e-03  -4.9366495138453430e-04  -7.8097267621123154e-04  5.3529447756332149e-03  8.1540211963322673e-03  -1.2598865769149355e-03  -2.4240833958757303e-02  -6.7790199615803751e-02  -1.3068938672281111e-01  -2.0077053932433173e-01  -2.6609601953460227e-01  -3.1971331403003789e-01  -3.5995958845660619e-01  -3.8835995502867782e-01  -4.0737111047395641e-01  -4.1927329366184812e-01  -4.2600088606181047e-01  -4.2919751187709571e-01  -4.3013774148584405e-01  -4.2951025056418690e-01  -4.2726499797494549e-01  -4.2241791789209404e-01  -4.1258277911412333e-01  -3.9364638517407718e-01  -3.6021211691033062e-01  -3.0758788880920895e-01  -2.3525148798922960e-01  -1.5099930995609562e-01  -7.1937985100654619e-02  -1.9602823561598315e-02  1.3636792558104523e-03  7.1931156507914241e-03  6.6202808092743924e-03  2.1302659663051666e-03  -3.8139197163233857e-04  -1.9211515948200659e-04  3.9202571812141590e-03  -2.1528942489910555e-03  -2.6205791230658974e-02  -6.9730468180117855e-02  -1.3256145690043444e-01  -2.0275951923566379e-01  -2.6703249210683150e-01  -3.1769081087491957e-01  -3.5308469857249769e-01  -3.7526558730929627e-01  -3.8753571424276578e-01  -3.9321925664390678e-01  -3.9517913982166503e-01  -3.9552274097444445e-01  -3.9551215607164758e-01  -3.9575917883627215e-01  -3.9655738455939582e-01  -3.9817487966275000e-01  -4.0074608852611365e-01  -4.0360496646943972e-01  -4.0420287869725546e-01  -3.9703730543043025e-01  -3.7379537492145504e-01  -3.2619975643397475e-01  -2.5139514276999192e-01  -1.5818154361512973e-01  -6.8800772249929837e-02  -1.4285925498503048e-02  1.5967962308475402e-03  3.1219994238902587e-03  1.5014109118236315e-03  -2.8116059338858623e-04  1.1602996492842128e-03  -1.2034049123316232e-03  -2.1175573255540293e-02  -6.1309601272017969e-02  -1.1977980756945220e-01  -1.8747645611928537e-01  -2.5016526806358708e-01  -2.9860100727986633e-01  -3.3035108965757121e-01  -3.4769834625552437e-01  -3.5489636985348982e-01  -3.5641467966139678e-01  -3.5582756480159178e-01  -3.5516863302951940e-01  -3.5505161064015400e-01  -3.5535438176381218e-01  -3.5585923776257861e-01  -3.5650027222001901e-01  -3.5750964603432844e-01  -3.5953148173677524e-01  -3.6347025665749427e-01  -3.6985226787094216e-01  -3.7713991398415997e-01  -3.7938785941129616e-01  -3.6552732300926183e-01  -3.2323474560212540e-01  -2.4713251703497507e-01  -1.4786795207881395e-01  -5.3811868307145051e-02  -5.4737242136496779e-03  2.3120231349589297e-03  1.3784023025705154e-03  -3.1824430144675913e-04  2.3089240325629627e-03  -1.0025076136756090e-02  -4.4581302712932210e-02  -9.6447775521150747e-02  -1.5946029759665606e-01  -2.2052555846117838e-01  -2.6842388327466898e-01  -2.9902859700860884e-01  -3.1423947465200314e-01  -3.1905348483192181e-01  -3.1902973065965029e-01  -3.1835930286118941e-01  -3.1887690617405529e-01  -3.2053694788007503e-01  -3.2262154952639094e-01  -3.2453091256858363e-01  -3.2595633361669440e-01  -3.2685260904381369e-01  -3.2728714101290923e-01  -3.2740741296927461e-01  -3.2774287630660032e-01  -3.2958413209964754e-01  -3.3484945388757259e-01  -3.4398659290620287e-01  -3.5161215451040156e-01  -3.4397268855204138e-01  -3.0421089867520423e-01  -2.2502599505835694e-01  -1.2095478500330138e-01  -3.0430911194824144e-02  2.7624037733377533e-03  5.1492425158558108e-04  2.7846242199004858e-04  2.9060505902681021e-03  -2.0051699057631125e-02  -6.5638007359268169e-02  -1.2222663794842369e-01  -1.8115734157010355e-01  -2.3000373451763415e-01  -2.6218821862699854e-01  -2.7812234511328265e-01  -2.8285551899606515e-01  -2.8278743218368979e-01  -2.8277958385508767e-01  -2.8460729161035392e-01  -2.8770042294429060e-01  -2.9096232851521459e-01  -2.9378221947703392e-01  -2.9605140382894413e-01  -2.9788554384430405e-01  -2.9942473199647096e-01  -3.0070158946027736e-01  -3.0155192494685895e-01  -3.0165536878110039e-01  -3.0087905406357557e-01  -3.0019421497354715e-01  -3.0254897366176708e-01  -3.1080989565432132e-01  -3.2062407522194275e-01  -3.1513824982372335e-01  -2.7276490420003091e-01  -1.8706505683084240e-01  -7.9884691716267747e-02  -8.3152495306319033e-03  4.7503140541283401e-03  -8.2051506264819963e-04  3.1779575737412068e-03  -2.7930743106142124e-02  -7.9259894299514258e-02  -1.3424201678058156e-01  -1.8444941798869152e-01  -2.2030082670693629e-01  -2.3967620712844423e-01  -2.4639792852156339e-01  -2.4717234293950799e-01  -2.4770863211299901e-01  -2.5022549313266684e-01  -2.5395168541571478e-01  -2.5750458774842827e-01  -2.6030762910303601e-01  -2.6248642430292851e-01  -2.6435960175443562e-01  -2.6616960584432880e-01  -2.6803202202463167e-01  -2.6999748315292355e-01  -2.7205447035717373e-01  -2.7396188059086152e-01  -2.7505016680144839e-01  -2.7440560611970777e-01  -2.7224615196089241e-01  -2.7214594895154487e-01  -2.7926521255299608e-01  -2.8946365270499425e-01  -2.8129078129934898e-01  -2.2953217475544888e-01  -1.3437311304105415e-01  -3.3185816424071271e-02  5.6182536419328646e-03  -1.9506175215928245e-03  3.2296244346440516e-03  -3.1738103752290227e-02  -8.3527065032850428e-02  -1.3281471482949223e-01  -1.7302819742987316e-01  -1.9790334511390373e-01  -2.0880768348652068e-01  -2.1153704282023672e-01  -2.1256967873756241e-01  -2.1525086257100737e-01  -2.1921949927009660e-01  -2.2290819956580740e-01  -2.2566458287501925e-01  -2.2777256759866635e-01  -2.2967137166026344e-01  -2.3157298128975476e-01  -2.3351436465771414e-01  -2.3549297419466092e-01  -2.3753578315349202e-01  -2.3973001969145596e-01  -2.4218591772300549e-01  -2.4481596422153204e-01  -2.4684614811686395e-01  -2.4667095882642498e-01  -2.4371730336744146e-01  -2.4232696663186881e-01  -2.4946816232691404e-01  -2.5844990048614291e-01  -2.4081260368428326e-01  -1.7292309734346276e-01  -6.9417004320505002e-02  -5.8703501985704169e-03  7.3860133722801881e-04  3.1893253282399294e-03  -3.1056300943000457e-02  -7.9204153563673343e-02  -1.2086966306960899e-01  -1.5184622161874467e-01  -1.6876046165820757e-01  -1.7517500302693834e-01  -1.7727634227628405e-01  -1.7987200739492479e-01  -1.8385672218238033e-01  -1.8780076879920937e-01  -1.9077058726552634e-01  -1.9303506777293208e-01  -1.9515436153558369e-01  -1.9735204211891633e-01  -1.9959059141427454e-01  -2.0180217845444881e-01  -2.0396851191151941e-01  -2.0609680551339712e-01  -2.0820015276874282e-01  -2.1035366675527092e-01  -2.1276470022256092e-01  -2.1558006558565951e-01  -2.1803415079868124e-01  -2.1786837262537978e-01  -2.1410090500176848e-01  -2.1282789345140873e-01  -2.2142874260012524e-01  -2.2505511501200162e-01  -1.8900500892232530e-01  -1.0052278019859491e-01  -1.5279883841640066e-02  6.2396236874773543e-03  3.1303222729090249e-03  -2.6571724849919754e-02  -6.8403471326970888e-02  -1.0199832687801937e-01  -1.2532345152499849e-01  -1.3708265759992574e-01  -1.4168742154260275e-01  -1.4447847775439202e-01  -1.4822521331074212e-01  -1.5240457611711231e-01  -1.5579927628879786e-01  -1.5835009577788800e-01  -1.6066634551011447e-01  -1.6307412209829439e-01  -1.6552809326833454e-01  -1.6794323357056540e-01  -1.7031981695894591e-01  -1.7268776923945117e-01  -1.7505687446999144e-01  -1.7739976844538094e-01  -1.7965802968765851e-01  -1.8182456784814471e-01  -1.8413694378161582e-01  -1.8694829265488688e-01  -1.8937019022958046e-01  -1.8838058826386048e-01  -1.8369586277572023e-01  -1.8469222972435900e-01  -1.9416033145836289e-01  -1.8295770032947334e-01  -1.1830982560008092e-01  -2.2781916976141892e-02  1.1217270200375058e-02  3.0469457977038406e-03  -1.9449701135398723e-02  -5.3425785081631885e-02  -7.9317597236523846e-02  -9.6605568717994514e-02  -1.0522414236067293e-01  -1.0933198242093028e-01  -1.1283338726542955e-01  -1.1694200151585636e-01  -1.2076621787797490e-01  -1.2371808059093482e-01  -1.2619480464433375e-01  -1.2867456943908645e-01  -1.3120718060403488e-01  -1.3369441520585640e-01  -1.3614044376679954e-01  -1.3860804197429466e-01  -1.4113784682963695e-01  -1.4373865363098204e-01  -1.4639420947044862e-01  -1.4904717539875520e-01  -1.5158074456634932e-01  -1.5390282860853008e-01  -1.5627843720615531e-01  -1.5916959103823650e-01  -1.6108927455736743e-01  -1.5827403894495898e-01  -1.5383636023908179e-01  -1.5956346067813804e-01  -1.6247142922980318e-01  -1.2198397420097998e-01  -3.1702846541004970e-02  1.2036180849338303e-02  2.9251139633161131e-03  -1.0799885977366867e-02  -3.6209257703593491e-02  -5.5027808916829318e-02  -6.7524986074465249e-02  -7.4181058198144453e-02  -7.8153018640541957e-02  -8.1922915849432593e-02  -8.5831180724480760e-02  -8.9182243333108674e-02  -9.1867651491964436e-02  -9.4336688701280452e-02  -9.6833632605477296e-02  -9.9312370590093457e-02  -1.0175140775425598e-01  -1.0422188345518614e-01  -1.0678655063704014e-01  -1.0947054389823722e-01  -1.1228124039322676e-01  -1.1521172945612565e-01  -1.1822880602498506e-01  -1.2125341552498159e-01  -1.2413102639990684e-01  -1.2672384938746847e-01  -1.2940526703552560e-01  -1.3246934628927126e-01  -1.3299135329258435e-01  -1.2801250008716408e-01  -1.2796802609482708e-01  -1.3584402335420892e-01  -1.1563530992566927e-01  -3.9463363445418592e-02  1.0379000397401675e-02  2.6714905992947170e-03  -1.7042904622366710e-03  -1.8108589491087724e-02  -3.0448289222563686e-02  -3.8950041790167832e-02  -4.4150924486463738e-02  -4.7914550011557616e-02  -5.1510147526164410e-02  -5.4931718525298968e-02  -5.7818393066350379e-02  -6.0284194544891138e-02  -6.2646156546183870e-02  -6.5009329075737657e-02  -6.7356291902771231e-02  -6.9735124288689943e-02  -7.2227050326324121e-02  -7.4880124949688029e-02  -7.7715817289706085e-02  -8.0744531611327455e-02  -8.3965098350468517e-02  -8.7355900580480164e-02  -9.0854799325035901e-02  -9.4355314041105420e-02  -9.7677429562925272e-02  -1.0071332732824420e-01  -1.0403167020315508e-01  -1.0695646422799471e-01  -1.0467427453504731e-01  -1.0114106892867882e-01  -1.0879795595346302e-01  -1.0350762046722552e-01  -4.4081713067763928e-02  8.0021831140089650e-03  1.6902849549296907e-03  6.7720808997309822e-03  3.0126078189771972e-04  -6.3877821282982365e-03  -1.1052070335614369e-02  -1.5017044159714651e-02  -1.8350224832903002e-02  -2.1486497019863892e-02  -2.4287327766759247e-02  -2.6704642626290114e-02  -2.8891677760146426e-02  -3.1024500136277930e-02  -3.3157144681424298e-02  -3.5327839072352027e-02  -3.7614263037111371e-02  -4.0088735045070031e-02  -4.2797807519258449e-02  -4.5772925723189480e-02  -4.9030542059388782e-02  -5.2571500807395144e-02  -5.6384527974841045e-02  -6.0424950515137153e-02  -6.4587593905898549e-02  -6.8752089215563278e-02  -7.2720117774717236e-02  -7.6545883334164413e-02  -8.0785260120081318e-02  -8.2065278373302381e-02  -7.8313445091387449e-02  -8.4086588271045412e-02  -8.8632092958822351e-02  -4.5223081632749268e-02  5.7599123788785924e-03  4.3129539172042400e-04  1.4339954661863805e-02  1.8203272752184599e-02  1.7043507034973204e-02  1.6191078203421607e-02  1.3547988050514255e-02  1.0745590213762020e-02  8.2067732412834764e-03  6.1060216836408025e-03  4.2196610895655247e-03  2.3924241889317433e-03  5.8612262745906855e-04  -1.2398155692256961e-03  -3.1766747424046195e-03  -5.3139859526671546e-03  -7.7174410117071242e-03  -1.0442751606666450e-02  -1.3535785159663234e-02  -1.7024230873579828e-02  -2.0914804970709990e-02  -2.5199229092498169e-02  -2.9848037418221448e-02  -3.4779917781446665e-02  -3.9863991303942463e-02  -4.5001210642171441e-02  -4.9944301630151268e-02  -5.5157324534276957e-02  -5.9570326780214587e-02  -5.8081532980668323e-02  -6.2456230246406751e-02  -7.3059535682404392e-02  -4.3693880300623371e-02  3.8660552400423876e-03  -9.5404003631641078e-04  2.0480110497590409e-02  3.5138308726376861e-02  3.9823927370795417e-02  4.2786202874463296e-02  4.1858523260575480e-02  3.9601365528229404e-02  3.7658021194163852e-02  3.6276866929857071e-02  3.5018487265611214e-02  3.3645789862875766e-02  3.2238283907906583e-02  3.0791782873540674e-02  2.9169246244875189e-02  2.7254438195796097e-02  2.4980475137831797e-02  2.2283678976173664e-02  1.9103132325725598e-02  1.5396311095404356e-02  1.1140803650231793e-02  6.3379212052357952e-03  1.0166428269196362e-03  -4.7709397135276841e-03  -1.0914830729494666e-02  -1.7325508627266221e-02  -2.3829000373328038e-02  -3.0295371118456593e-02  -3.7175718784080068e-02  -3.9293480588921369e-02  -4.3663616735501988e-02  -5.8073631784906612e-02  -4.0637410204412326e-02  2.2875537734579959e-03  -2.4678422985310853e-03  2.4549745410809443e-02  5.0505707721917564e-02  6.1841297787531828e-02  6.8736858463803605e-02  7.0063506678917545e-02  6.8463037483274800e-02  6.6977399552873046e-02  6.6260656590500788e-02  6.5718618155359732e-02  6.4933335598741523e-02  6.4000053904310392e-02  6.2995816476955943e-02  6.1778927249225547e-02  6.0184692013708282e-02  5.8116795348009405e-02  5.5503859010968215e-02  5.2274558368823873e-02  4.8368134034916417e-02  4.3746287584988698e-02  3.8398785741257560e-02  3.2345056802881793e-02  2.5629365871565776e-02  1.8295049613592265e-02  1.0469440737024965e-02  2.1979309761945977e-03  -6.0207847261733059e-03  -1.4972994460166790e-02  -2.1190753107534526e-02  -2.7126942445371914e-02  -4.4369799609850345e-02  -3.7078067383986613e-02  9.1523259293437129e-04  -4.0251820576118150e-03  2.6013306071234314e-02  6.3367084667533533e-02  8.2689656411688031e-02  9.3903382187482523e-02  9.8102150922789663e-02  9.7525222074447457e-02  9.6305353882849901e-02  9.6081784091912245e-02  9.6303250159197246e-02  9.6279562224430140e-02  9.5950916104011089e-02  9.5455840852948920e-02  9.4722250042398148e-02  9.3554746298716351e-02  9.1798375660224876e-02  8.9349454827474611e-02  8.6123713734814866e-02  8.2049454224466439e-02  7.7073087881382507e-02  7.1173995160055639e-02  6.4359155729079270e-02  5.6638296283081507e-02  4.8014349718350599e-02  3.8596380502759049e-02  2.8471357080740719e-02  1.8049883720166221e-02  7.0849305738484051e-03  -3.3102520443733375e-03  -1.2216637339963655e-02  -3.2231069912704711e-02  -3.3771241846032050e-02  -3.5432948326169793e-04  -5.3710101111607003e-03  2.4725065288138441e-02  7.2416425800288328e-02  1.0139601514198893e-01  1.1785521749430185e-01  1.2559186702800273e-01  1.2677741965233946e-01  1.2583037315922571e-01  1.2579846924781224e-01  1.2670689065637109e-01  1.2762375711302548e-01  1.2813731018133945e-01  1.2829855506943535e-01  1.2812580586410419e-01  1.2746697503167270e-01  1.2612400251176298e-01  1.2394060625816582e-01  1.2080167481448915e-01  1.1661745722592222e-01  1.1132666057696902e-01  1.0489675653307923e-01  9.7305191790830400e-02  8.8509795784606729e-02  7.8499111943925684e-02  6.7352033674168976e-02  5.5273715496403308e-02  4.2445543998808004e-02  2.9175753884801335e-02  1.4665086802892109e-02  1.6868289285703120e-03  -2.1749461746048825e-02  -3.1173510034233763e-02  -1.6371258999291730e-03  -5.9877585699481591e-03  2.1161545845227541e-02  7.6052139104025238e-02  1.1616675382489933e-01  1.3956406904561497e-01  1.5174702065398202e-01  1.5577203687553570e-01  1.5565898452575597e-01  1.5559695909193566e-01  1.5690233493106226e-01  1.5880927341043904e-01  1.6046949352231057e-01  1.6160272550379037e-01  1.6218682158409303e-01  1.6214333310105869e-01  1.6130140393380407e-01  1.5947575361617489e-01  1.5651517461752470e-01  1.5230671431583498e-01  1.4676830538539093e-01  1.3983771943918497e-01  1.3144206780602977e-01  1.2150460623478743e-01  1.1002002553651395e-01  9.7100694775212479e-02  8.2927948341868632e-02  6.7715987352017837e-02  5.1630662560776766e-02  3.3063154105595786e-02  1.5008987514810199e-02  -1.2894783155904243e-02  -2.9488144631783224e-02  -3.0716190444662434e-03  -5.3046498920186983e-03  1.6366747854226701e-02  7.2687509490176772e-02  1.2424623544106093e-01  1.5704472399199004e-01  1.7521118667765442e-01  1.8340824482208920e-01  1.8544089965107696e-01  1.8573861221910026e-01  1.8711712188057436e-01  1.8976079188621703e-01  1.9270810937943372e-01  1.9520615736650118e-01  1.9694299235078108e-01  1.9779140434787468e-01  1.9762167993668284e-01  1.9627304837615617e-01  1.9358542931555853e-01  1.8942489487357120e-01  1.8367917420690966e-01  1.7623775666676259e-01  1.6698987574074517e-01  1.5587032899673225e-01  1.4291986975164594e-01  1.2822377616674369e-01  1.1196473498931588e-01  9.4293951923146227e-02  7.5056040386093509e-02  5.2019457637306907e-02  2.7854603018575789e-02  -5.2902857304119181e-03  -2.8887314530978338e-02  -4.6487052536068208e-03  -3.2976870711154695e-03  1.1035999866108244e-02  6.1661026237411480e-02  1.2254426471133890e-01  1.6699565850485923e-01  1.9371989634703024e-01  2.0782027391896724e-01  2.1388062613031331e-01  2.1602939982030439e-01  2.1784930423301896e-01  2.2090545184760560e-01  2.2488349546200750e-01  2.2885509463391859e-01  2.3210566471510449e-01  2.3424943213191590e-01  2.3507523110148809e-01  