<?xml version="1.0"?>
<VTKFile type="UnstructuredGrid"  version="0.1"  >
<UnstructuredGrid>
<Piece  NumberOfPoints="1089" NumberOfCells="1024">
<Points>
<DataArray  type="Float64"  NumberOfComponents="3"  format="ascii">0 0 0  0.03125 0 0  0.0625 0 0  0.09375 0 0  0.125 0 0  0.15625 0 0  0.1875 0 0  0.21875 0 0  0.25 0 0  0.28125 0 0  0.3125 0 0  0.34375 0 0  0.375 0 0  0.40625 0 0  0.4375 0 0  0.46875 0 0  0.5 0 0  0.53125 0 0  0.5625 0 0  0.59375 0 0  0.625 0 0  0.65625 0 0  0.6875 0 0  0.71875 0 0  0.75 0 0  0.78125 0 0  0.8125 0 0  0.84375 0 0  0.875 0 0  0.90625 0 0  0.9375 0 0  0.96875 0 0  1 0 0  0 0.03125 0  0.03125 0.03125 0  0.0625 0.03125 0  0.09375 0.03125 0  0.125 0.03125 0  0.15625 0.03125 0  0.1875 0.03125 0  0.21875 0.03125 0  0.25 0.03125 0  0.28125 0.03125 0  0.3125 0.03125 0  0.34375 0.03125 0  0.375 0.03125 0  0.40625 0.03125 0  0.4375 0.03125 0  0.46875 0.03125 0  0.5 0.03125 0  0.53125 0.03125 0  0.5625 0.03125 0  0.59375 0.03125 0  0.625 0.03125 0  0.65625 0.03125 0  0.6875 0.03125 0  0.71875 0.03125 0  0.75 0.03125 0  0.78125 0.03125 0  0.8125 0.03125 0  0.84375 0.03125 0  0.875 0.03125 0  0.90625 0.03125 0  0.9375 0.03125 0  0.96875 0.03125 0  1 0.03125 0  0 0.0625 0  0.03125 0.0625 0  0.0625 0.0625 0  0.09375 0.0625 0  0.125 0.0625 0  0.15625 0.0625 0  0.1875 0.0625 0  0.21875 0.0625 0  0.25 0.0625 0  0.28125 0.0625 0  0.3125 0.0625 0  0.34375 0.0625 0  0.375 0.0625 0  0.40625 0.0625 0  0.4375 0.0625 0  0.46875 0.0625 0  0.5 0.0625 0  0.53125 0.0625 0  0.5625 0.0625 0  0.59375 0.0625 0  0.625 0.0625 0  0.65625 0.0625 0  0.6875 0.0625 0  0.71875 0.0625 0  0.75 0.0625 0  0.78125 0.0625 0  0.8125 0.0625 0  0.84375 0.0625 0  0.875 0.0625 0  0.90625 0.0625 0  0.9375 0.0625 0  0.96875 0.0625 0  1 0.0625 0  0 0.09375 0  0.03125 0.09375 0  0.0625 0.09375 0  0.09375 0.09375 0  0.125 0.09375 0  0.15625 0.09375 0  0.1875 0.09375 0  0.21875 0.09375 0  0.25 0.09375 0  0.28125 0.09375 0  0.3125 0.09375 0  0.34375 0.09375 0  0.375 0.09375 0  0.40625 0.09375 0  0.4375 0.09375 0  0.46875 0.09375 0  0.5 0.09375 0  0.53125 0.09375 0  0.5625 0.09375 0  0.59375 0.09375 0  0.625 0.09375 0  0.65625 0.09375 0  0.6875 0.09375 0  0.71875 0.09375 0  0.75 0.09375 0  0.78125 0.09375 0  0.8125 0.09375 0  0.84375 0.09375 0  0.875 0.09375 0  0.90625 0.09375 0  0.9375 0.09375 0  0.96875 0.09375 0  1 0.09375 0  0 0.125 0  0.03125 0.125 0  0.0625 0.125 0  0.09375 0.125 0  0.125 0.125 0  0.15625 0.125 0  0.1875 0.125 0  0.21875 0.125 0  0.25 0.125 0  0.28125 0.125 0  0.3125 0.125 0  0.34375 0.125 0  0.375 0.125 0  0.40625 0.125 0  0.4375 0.125 0  0.46875 0.125 0  0.5 0.125 0  0.53125 0.125 0  0.5625 0.125 0  0.59375 0.125 0  0.625 0.125 0  0.65625 0.125 0  0.6875 0.125 0  0.71875 0.125 0  0.75 0.125 0  0.78125 0.125 0  0.8125 0.125 0  0.84375 0.125 0  0.875 0.125 0  0.90625 0.125 0  0.9375 0.125 0  0.96875 0.125 0  1 0.125 0  0 0.15625 0  0.03125 0.15625 0  0.0625 0.15625 0  0.09375 0.15625 0  0.125 0.15625 0  0.15625 0.15625 0  0.1875 0.15625 0  0.21875 0.15625 0  0.25 0.15625 0  0.28125 0.15625 0  0.3125 0.15625 0  0.34375 0.15625 0  0.375 0.15625 0  0.40625 0.15625 0  0.4375 0.15625 0  0.46875 0.15625 0  0.5 0.15625 0  0.53125 0.15625 0  0.5625 0.15625 0  0.59375 0.15625 0  0.625 0.15625 0  0.65625 0.15625 0  0.6875 0.15625 0  0.71875 0.15625 0  0.75 0.15625 0  0.78125 0.15625 0  0.8125 0.15625 0  0.84375 0.15625 0  0.875 0.15625 0  0.90625 0.15625 0  0.9375 0.15625 0  0.96875 0.15625 0  1 0.15625 0  0 0.1875 0  0.03125 0.1875 0  0.0625 0.1875 0  0.09375 0.1875 0  0.125 0.1875 0  0.15625 0.1875 0  0.1875 0.1875 0  0.21875 0.1875 0  0.25 0.1875 0  0.28125 0.1875 0  0.3125 0.1875 0  0.34375 0.1875 0  0.375 0.1875 0  0.40625 0.1875 0  0.4375 0.1875 0  0.46875 0.1875 0  0.5 0.1875 0  0.53125 0.1875 0  0.5625 0.1875 0  0.59375 0.1875 0  0.625 0.1875 0  0.65625 0.1875 0  0.6875 0.1875 0  0.71875 0.1875 0  0.75 0.1875 0  0.78125 0.1875 0  0.8125 0.1875 0  0.84375 0.1875 0  0.875 0.1875 0  0.90625 0.1875 0  0.9375 0.1875 0  0.96875 0.1875 0  1 0.1875 0  0 0.21875 0  0.03125 0.21875 0  0.0625 0.21875 0  0.09375 0.21875 0  0.125 0.21875 0  0.15625 0.21875 0  0.1875 0.21875 0  0.21875 0.21875 0  0.25 0.21875 0  0.28125 0.21875 0  0.3125 0.21875 0  0.34375 0.21875 0  0.375 0.21875 0  0.40625 0.21875 0  0.4375 0.21875 0  0.46875 0.21875 0  0.5 0.21875 0  0.53125 0.21875 0  0.5625 0.21875 0  0.59375 0.21875 0  0.625 0.21875 0  0.65625 0.21875 0  0.6875 0.21875 0  0.71875 0.21875 0  0.75 0.21875 0  0.78125 0.21875 0  0.8125 0.21875 0  0.84375 0.21875 0  0.875 0.21875 0  0.90625 0.21875 0  0.9375 0.21875 0  0.96875 0.21875 0  1 0.21875 0  0 0.25 0  0.03125 0.25 0  0.0625 0.25 0  0.09375 0.25 0  0.125 0.25 0  0.15625 0.25 0  0.1875 0.25 0  0.21875 0.25 0  0.25 0.25 0  0.28125 0.25 0  0.3125 0.25 0  0.34375 0.25 0  0.375 0.25 0  0.40625 0.25 0  0.4375 0.25 0  0.46875 0.25 0  0.5 0.25 0  0.53125 0.25 0  0.5625 0.25 0  0.59375 0.25 0  0.625 0.25 0  0.65625 0.25 0  0.6875 0.25 0  0.71875 0.25 0  0.75 0.25 0  0.78125 0.25 0  0.8125 0.25 0  0.84375 0.25 0  0.875 0.25 0  0.90625 0.25 0  0.9375 0.25 0  0.96875 0.25 0  1 0.25 0  0 0.28125 0  0.03125 0.28125 0  0.0625 0.28125 0  0.09375 0.28125 0  0.125 0.28125 0  0.15625 0.28125 0  0.1875 0.28125 0  0.21875 0.28125 0  0.25 0.28125 0  0.28125 0.28125 0  0.3125 0.28125 0  0.34375 0.28125 0  0.375 0.28125 0  0.40625 0.28125 0  0.4375 0.28125 0  0.46875 0.28125 0  0.5 0.28125 0  0.53125 0.28125 0  0.5625 0.28125 0  0.59375 0.28125 0  0.625 0.28125 0  0.65625 0.28125 0  0.6875 0.28125 0  0.71875 0.28125 0  0.75 0.28125 0  0.78125 0.28125 0  0.8125 0.28125 0  0.84375 0.28125 0  0.875 0.28125 0  0.90625 0.28125 0  0.9375 0.28125 0  0.96875 0.28125 0  1 0.28125 0  0 0.3125 0  0.03125 0.3125 0  0.0625 0.3125 0  0.09375 0.3125 0  0.125 0.3125 0  0.15625 0.3125 0  0.1875 0.3125 0  0.21875 0.3125 0  0.25 0.3125 0  0.28125 0.3125 0  0.3125 0.3125 0  0.34375 0.3125 0  0.375 0.3125 0  0.40625 0.3125 0  0.4375 0.3125 0  0.46875 0.3125 0  0.5 0.3125 0  0.53125 0.3125 0  0.5625 0.3125 0  0.59375 0.3125 0  0.625 0.3125 0  0.65625 0.3125 0  0.6875 0.3125 0  0.71875 0.3125 0  0.75 0.3125 0  0.78125 0.3125 0  0.8125 0.3125 0  0.84375 0.3125 0  0.875 0.3125 0  0.90625 0.3125 0  0.9375 0.3125 0  0.96875 0.3125 0  1 0.3125 0  0 0.34375 0  0.03125 0.34375 0  0.0625 0.34375 0  0.09375 0.34375 0  0.125 0.34375 0  0.15625 0.34375 0  0.1875 0.34375 0  0.21875 0.34375 0  0.25 0.34375 0  0.28125 0.34375 0  0.3125 0.34375 0  0.34375 0.34375 0  0.375 0.34375 0  0.40625 0.34375 0  0.4375 0.34375 0  0.46875 0.34375 0  0.5 0.34375 0  0.53125 0.34375 0  0.5625 0.34375 0  0.59375 0.34375 0  0.625 0.34375 0  0.65625 0.34375 0  0.6875 0.34375 0  0.71875 0.34375 0  0.75 0.34375 0  0.78125 0.34375 0  0.8125 0.34375 0  0.84375 0.34375 0  0.875 0.34375 0  0.90625 0.34375 0  0.9375 0.34375 0  0.96875 0.34375 0  1 0.34375 0  0 0.375 0  0.03125 0.375 0  0.0625 0.375 0  0.09375 0.375 0  0.125 0.375 0  0.15625 0.375 0  0.1875 0.375 0  0.21875 0.375 0  0.25 0.375 0  0.28125 0.375 0  0.3125 0.375 0  0.34375 0.375 0  0.375 0.375 0  0.40625 0.375 0  0.4375 0.375 0  0.46875 0.375 0  0.5 0.375 0  0.53125 0.375 0  0.5625 0.375 0  0.59375 0.375 0  0.625 0.375 0  0.65625 0.375 0  0.6875 0.375 0  0.71875 0.375 0  0.75 0.375 0  0.78125 0.375 0  0.8125 0.375 0  0.84375 0.375 0  0.875 0.375 0  0.90625 0.375 0  0.9375 0.375 0  0.96875 0.375 0  1 0.375 0  0 0.40625 0  0.03125 0.40625 0  0.0625 0.40625 0  0.09375 0.40625 0  0.125 0.40625 0  0.15625 0.40625 0  0.1875 0.40625 0  0.21875 0.40625 0  0.25 0.40625 0  0.28125 0.40625 0  0.3125 0.40625 0  0.34375 0.40625 0  0.375 0.40625 0  0.40625 0.40625 0  0.4375 0.40625 0  0.46875 0.40625 0  0.5 0.40625 0  0.53125 0.40625 0  0.5625 0.40625 0  0.59375 0.40625 0  0.625 0.40625 0  0.65625 0.40625 0  0.6875 0.40625 0  0.71875 0.40625 0  0.75 0.40625 0  0.78125 0.40625 0  0.8125 0.40625 0  0.84375 0.40625 0  0.875 0.40625 0  0.90625 0.40625 0  0.9375 0.40625 0  0.96875 0.40625 0  1 0.40625 0  0 0.4375 0  0.03125 0.4375 0  0.0625 0.4375 0  0.09375 0.4375 0  0.125 0.4375 0  0.15625 0.4375 0  0.1875 0.4375 0  0.21875 0.4375 0  0.25 0.4375 0  0.28125 0.4375 0  0.3125 0.4375 0  0.34375 0.4375 0  0.375 0.4375 0  0.40625 0.4375 0  0.4375 0.4375 0  0.46875 0.4375 0  0.5 0.4375 0  0.53125 0.4375 0  0.5625 0.4375 0  0.59375 0.4375 0  0.625 0.4375 0  0.65625 0.4375 0  0.6875 0.4375 0  0.71875 0.4375 0  0.75 0.4375 0  0.78125 0.4375 0  0.8125 0.4375 0  0.84375 0.4375 0  0.875 0.4375 0  0.90625 0.4375 0  0.9375 0.4375 0  0.96875 0.4375 0  1 0.4375 0  0 0.46875 0  0.03125 0.46875 0  0.0625 0.46875 0  0.09375 0.46875 0  0.125 0.46875 0  0.15625 0.46875 0  0.1875 0.46875 0  0.21875 0.46875 0  0.25 0.46875 0  0.28125 0.46875 0  0.3125 0.46875 0  0.34375 0.46875 0  0.375 0.46875 0  0.40625 0.46875 0  0.4375 0.46875 0  0.46875 0.46875 0  0.5 0.46875 0  0.53125 0.46875 0  0.5625 0.46875 0  0.59375 0.46875 0  0.625 0.46875 0  0.65625 0.46875 0  0.6875 0.46875 0  0.71875 0.46875 0  0.75 0.46875 0  0.78125 0.46875 0  0.8125 0.46875 0  0.84375 0.46875 0  0.875 0.46875 0  0.90625 0.46875 0  0.9375 0.46875 0  0.96875 0.46875 0  1 0.46875 0  0 0.5 0  0.03125 0.5 0  0.0625 0.5 0  0.09375 0.5 0  0.125 0.5 0  0.15625 0.5 0  0.1875 0.5 0  0.21875 0.5 0  0.25 0.5 0  0.28125 0.5 0  0.3125 0.5 0  0.34375 0.5 0  0.375 0.5 0  0.40625 0.5 0  0.4375 0.5 0  0.46875 0.5 0  0.5 0.5 0  0.53125 0.5 0  0.5625 0.5 0  0.59375 0.5 0  0.625 0.5 0  0.65625 0.5 0  0.6875 0.5 0  0.71875 0.5 0  0.75 0.5 0  0.78125 0.5 0  0.8125 0.5 0  0.84375 0.5 0  0.875 0.5 0  0.90625 0.5 0  0.9375 0.5 0  0.96875 0.5 0  1 0.5 0  0 0.53125 0  0.03125 0.53125 0  0.0625 0.53125 0  0.09375 0.53125 0  0.125 0.53125 0  0.15625 0.53125 0  0.1875 0.53125 0  0.21875 0.53125 0  0.25 0.53125 0  0.28125 0.53125 0  0.3125 0.53125 0  0.34375 0.53125 0  0.375 0.53125 0  0.40625 0.53125 0  0.4375 0.53125 0  0.46875 0.53125 0  0.5 0.53125 0  0.53125 0.53125 0  0.5625 0.53125 0  0.59375 0.53125 0  0.625 0.53125 0  0.65625 0.53125 0  0.6875 0.53125 0  0.71875 0.53125 0  0.75 0.53125 0  0.78125 0.531
[...]
<PointData  Scalars="v_sol"> 
<DataArray  type="Float64"  Name="v_sol"  format="ascii">4.6590174395113462e-05  3.3231978706166836e-04  4.3226460160749241e-04  2.9408618450660161e-04  1.2940402936305326e-04  -8.1934190975228119e-06  -9.7946955419943763e-06  2.9958862465834776e-05  -6.1033321069486944e-04  -2.2100621611134763e-03  -4.0037528135483877e-03  -4.7550001460165145e-03  -4.1677020256718168e-03  -2.8069100071343358e-03  -1.2374476915635428e-03  2.2620070530897016e-04  1.4255588718195841e-03  2.1435741946212753e-03  2.5036996222060222e-03  2.8554419629959215e-03  3.1698666948681772e-03  3.4925883472877945e-03  3.6360985583120896e-03  3.6435632785728257e-03  2.1093035192660176e-03  -3.0201538666360244e-04  -1.4876973282689117e-03  -1.8875101721746613e-03  -1.3915031024356347e-03  -8.8912208265830989e-04  -4.6269997835417286e-04  -2.1349402597255085e-04  -7.9721211018546263e-06  1.4160477684420703e-04  -1.9138756351896043e-03  -2.6137398691323446e-03  -1.6451351905517853e-03  -5.6467465530466506e-04  -1.3978401124320412e-04  -3.9640356227656632e-04  -3.0832540346687203e-04  2.8642554856935743e-03  8.3437557549080350e-03  1.3565524697425013e-02  1.7940467249622626e-02  2.0609435227086973e-02  2.0408887206878328e-02  1.6823182022159676e-02  1.0159314190801438e-02  1.2203052553853018e-03  -9.0208349136576341e-03  -1.9219537358182503e-02  -2.7487070869074887e-02  -3.1920641704822429e-02  -3.0763266823701615e-02  -2.3326163557327115e-02  -1.0541169224823177e-02  2.4004993897106812e-03  1.0043782521071838e-02  1.1738068628479188e-02  9.9055468385669219e-03  6.6974801828049522e-03  4.0688580806575170e-03  2.2076899465206974e-03  8.8847815996514871e-04  -1.9142089295069722e-04  -1.9348573439029355e-04  -7.2779659342741597e-03  -8.3937163531394056e-03  -4.4338715099839126e-03  -2.1467137588757932e-05  2.2669404671307953e-03  6.6216427997963113e-03  1.7736082111086331e-02  3.4303764220919228e-02  5.1356917443656835e-02  6.3236619728548563e-02  6.7059066280572538e-02  6.2776978266227482e-02  5.1844704195528030e-02  3.5991379962404944e-02  1.6735893920298242e-02  -4.6883483102763456e-03  -2.7065233475949239e-02  -4.8822924004972020e-02  -6.7862203700365803e-02  -8.1093392142201556e-02  -8.5006975832056061e-02  -7.6727569523346820e-02  -5.6177771951449511e-02  -2.7355061281018393e-02  1.3580155688448076e-04  1.6065887256009159e-02  2.1292164590885818e-02  1.9562766203544156e-02  1.4179978800042346e-02  9.1040175731143917e-03  4.7367814143883611e-03  3.1714469321925711e-05  -9.9248535286060812e-04  -1.4782273129874155e-02  -1.3414123160765380e-02  -3.3908237998254431e-03  6.1636997450479182e-03  1.7556310739542134e-02  3.8869427929039135e-02  6.8183344510506019e-02  9.5432487595254231e-02  1.1288972826535831e-01  1.1774908677076207e-01  1.1099170441168212e-01  9.5533468205839994e-02  7.4262600398597417e-02  4.9266946634777403e-02  2.1809917439935111e-02  -7.3856086609693297e-03  -3.7795332902104427e-02  -6.8425622276735931e-02  -9.7455178331113890e-02  -1.2186858268159004e-01  -1.3711862512920986e-01  -1.3799466199007701e-01  -1.2069647852482754e-01  -8.6363012254060401e-02  -4.2990369777613613e-02  -5.2157862991873997e-03  1.5308290730232934e-02  2.2334788758367780e-02  2.1809163871290796e-02  1.6644076279928113e-02  1.0260140335819054e-02  6.5507795053314308e-04  -2.8163347203609365e-03  -2.2979141514354335e-02  -1.3839281358577846e-02  5.9426041590279425e-03  2.7156248244923274e-02  5.8695548603730004e-02  9.9436640166242832e-02  1.3648666738677370e-01  1.6012967770844608e-01  1.6727037009067899e-01  1.5983044841907609e-01  1.4185030721067127e-01  1.1717479257923738e-01  8.8568952120418321e-02  5.7689480338897980e-02  2.5385593822022486e-02  -7.9604202364699853e-03  -4.2153062983325905e-02  -7.7169496009524094e-02  -1.1241304305755151e-01  -1.4603523979445612e-01  -1.7431781789002421e-01  -1.9125170707302128e-01  -1.8957653613804076e-01  -1.6376712578533820e-01  -1.1517791557847208e-01  -5.5815233167657470e-02  -7.2999808143220987e-03  1.5418801082223451e-02  2.2456376615257866e-02  2.1780027831695036e-02  1.5303530162826914e-02  1.1762044460090133e-03  -6.0802937059284221e-03  -2.8329220768789295e-02  -4.6665992435393211e-03  2.9586801467172519e-02  7.0963320075572267e-02  1.2211293802630360e-01  1.6976737735024633e-01  2.0122771916799945e-01  2.1212852311857278e-01  2.0495212376754143e-01  1.8502532787392889e-01  1.5746179628192397e-01  1.2602108456583391e-01  9.3032126822132938e-02  5.9636409243212750e-02  2.6144457547098255e-02  -7.5942479622959722e-03  -4.1893791772386717e-02  -7.7118123826125859e-02  -1.1346605208454683e-01  -1.5069006593161555e-01  -1.8731519541506339e-01  -2.1935804715756257e-01  -2.3928315244343085e-01  -2.3696798932037161e-01  -2.0385603664038587e-01  -1.4034364718102305e-01  -6.2656439924905785e-02  -3.1093153011390881e-03  1.8469563588015811e-02  2.3784779330696251e-02  1.8579355708620231e-02  1.5887357920236563e-03  -1.0783347783990486e-02  -2.4648712528925171e-02  1.8097104881150110e-02  7.1286022669539303e-02  1.3210166337319948e-01  1.9137409031736036e-01  2.3327176198499633e-01  2.5055471405583396e-01  2.4539299130014464e-01  2.2444469351303184e-01  1.9457891706898139e-01  1.6095946668944805e-01  1.2661906584944671e-01  9.2745830689068387e-02  5.9402144530993989e-02  2.6241478001475502e-02  -7.0917903425587910e-03  -4.0843370386151288e-02  -7.5090522688402273e-02  -1.0999403989307971e-01  -1.4591296026295661e-01  -1.8328751545381131e-01  -2.2168204201877539e-01  -2.5746334855231534e-01  -2.8126434417838136e-01  -2.7867529187480872e-01  -2.3667228016184683e-01  -1.5502756844531637e-01  -5.7168396015310839e-02  8.3375234801141580e-03  2.2735995913292097e-02  2.1148019354487346e-02  1.8447460551183632e-03  -1.4206951269058988e-02  -7.0905349693894523e-03  5.5215066645370937e-02  1.2662917463231807e-01  1.9792152313052655e-01  2.5346063665696039e-01  2.8128676557433518e-01  2.8140816309562933e-01  2.6137306835280660e-01  2.3027802342392575e-01  1.9527835921804726e-01  1.6033490891234053e-01  1.2653727113446933e-01  9.3478053641394235e-02  6.0526454329720716e-02  2.7320756738074964e-02  -6.2614250368763407e-03  -4.0231290717277109e-02  -7.4429112524476440e-02  -1.0865744575603317e-01  -1.4283654981100477e-01  -1.7736336812868794e-01  -2.1350937961617236e-01  -2.5249359843652347e-01  -2.9159355367811918e-01  -3.1888176149105496e-01  -3.1359228445662168e-01  -2.5706931162459767e-01  -1.5123023958819598e-01  -3.4258955249783916e-02  2.1633957745838026e-02  2.2753638395095158e-02  2.3329301970824437e-03  -1.1596182746914145e-02  2.4250286596183616e-02  1.0340480439982243e-01  1.8692580767464176e-01  2.5834378250336232e-01  3.0190146088730219e-01  3.1242364947298751e-01  2.9665810803446119e-01  2.6593935334541485e-01  2.3019110885426036e-01  1.9499686593872526e-01  1.6157146418348448e-01  1.2896324196885658e-01  9.6211869032472405e-02  6.2977360446113739e-02  2.9270168808786797e-02  -4.8240883924906683e-03  -3.9220024858677982e-02  -7.3867040366664111e-02  -1.0859381262922842e-01  -1.4302482401427127e-01  -1.7668636423465803e-01  -2.0968995145093219e-01  -2.4399256294752461e-01  -2.8291894069419954e-01  -3.2486840149406537e-01  -3.5360427598122557e-01  -3.3917175340986289e-01  -2.5763061791491892e-01  -1.2060247854289982e-01  3.3224729016658413e-03  2.4942745298123670e-02  4.3973559296641412e-03  -1.3700212027459675e-03  6.6164645340548472e-02  1.5685566810601573e-01  2.4463165567097142e-01  3.0821411275234950e-01  3.3587238302404643e-01  3.2975883381085075e-01  3.0208358793281831e-01  2.6615558278861323e-01  2.3047566712654419e-01  1.9722738008607774e-01  1.6500432335318219e-01  1.3237681338190385e-01  9.9043979291344744e-02  6.5244279384632356e-02  3.1188919529913515e-02  -3.0581325022393927e-03  -3.7513174753718459e-02  -7.2234337172182042e-02  -1.0725142461848979e-01  -1.4245091209166771e-01  -1.7736226130777680e-01  -2.1102109028694591e-01  -2.4289660746157932e-01  -2.7550793115980471e-01  -3.1477548034893787e-01  -3.5947056420493717e-01  -3.8500232482988450e-01  -3.4886399907175453e-01  -2.2683793037124592e-01  -5.7552118855685362e-02  2.8625261521074793e-02  7.1204130878783894e-03  1.4433640143148402e-02  1.1385392781214770e-01  2.0990499334766125e-01  2.9528798695958958e-01  3.4650540348009307e-01  3.5785111535370751e-01  3.3819681632802817e-01  3.0353883340709303e-01  2.6685304026611784e-01  2.3311703129957920e-01  2.0109762142068807e-01  1.6860199186949956e-01  1.3513182873990195e-01  1.0117570614931345e-01  6.7117311509309288e-02  3.3022871717472146e-02  -1.1739154148222284e-03  -3.5545600396209576e-02  -7.0128020970619168e-02  -1.0497087411136503e-01  -1.4017299724288554e-01  -1.7578307091718126e-01  -2.1135171722519983e-01  -2.4535040281572876e-01  -2.7637445449067133e-01  -3.0793222781169571e-01  -3.4929888408813381e-01  -3.9628169426076898e-01  -4.0803276295325497e-01  -3.2833736205987279e-01  -1.5023978543718422e-01  1.8207485510732178e-02  8.5859699193508113e-03  3.2078405142616624e-02  1.6223348282247718e-01  2.5848421112920278e-01  3.3720787598333357e-01  3.7461289856574781e-01  3.7152565164559742e-01  3.4234543375489707e-01  3.0484590397802525e-01  2.6947642679573652e-01  2.3715027930092308e-01  2.0491120232299445e-01  1.7143432427526745e-01  1.3730655205835374e-01  1.0318803461325811e-01  6.9166535029175649e-02  3.5101699267560571e-02  8.9739508852205952e-04  -3.3482605899972734e-02  -6.8042091405144625e-02  -1.0277559796894610e-01  -1.3772206543523416e-01  -1.7306097794432065e-01  -2.0908075872292864e-01  -2.4539697214259701e-01  -2.7966286525079886e-01  -3.0960980704776520e-01  -3.4150746576006247e-01  -3.8829380473350422e-01  -4.3303238196756300e-01  -4.0751899463657931e-01  -2.5226908026557038e-01  -2.2779839801682206e-02  1.6616399573358889e-02  4.7467275607269065e-02  2.0711867001264322e-01  3.0027194980364891e-01  3.7047030413651422e-01  3.9485993195324620e-01  3.8030954328052524e-01  3.4528117553202342e-01  3.0737110513753085e-01  2.7340063291982075e-01  2.4126524841527375e-01  2.0807370959457025e-01  1.7381730945339716e-01  1.3952831160004978e-01  1.0550397091605007e-01  7.1523805092354703e-02  3.7428199654097286e-02  3.1820326462398347e-03  -3.1225953085146817e-02  -6.5816286548379080e-02  -1.0059901655515927e-01  -1.3555563677085708e-01  -1.7069693752932533e-01  -2.0628373338833578e-01  -2.4290327412001311e-01  -2.8006095585378760e-01  -3.1393676531259845e-01  -3.4231644883832446e-01  -3.7834483026911425e-01  -4.3373509690535417e-01  -4.5719285996238840e-01  -3.4952489530809311e-01  -9.4518742590631533e-02  3.9143790183839303e-02  5.7332397716268170e-02  2.4551296026106173e-01  3.3427597496417227e-01  3.9599342652598118e-01  4.0948808583325463e-01  3.8660865397512867e-01  3.4838493095047640e-01  3.1093624940321374e-01  2.7763990610850287e-01  2.4490724176843590e-01  2.1079184442580490e-01  1.7619761509671492e-01  1.4198253516248691e-01  1.0800748507978086e-01  7.3981488481998023e-02  3.9849485805771967e-02  5.6154168506885220e-03  -2.8755301634386835e-02  -6.3313985161591924e-02  -9.8108631651922087e-02  -1.3316317027482816e-01  -1.6844982343563236e-01  -2.0395065053737307e-01  -2.4006644882213485e-01  -2.7774163868114826e-01  -3.1564198568204810e-01  -3.4751201795842163e-01  -3.7545085972457015e-01  -4.2427479054368078e-01  -4.8041125745796193e-01  -4.3059005223065006e-01  -1.8364742536221265e-01  6.4477079224925155e-02  5.9667710909970528e-02  2.7545969241720536e-01  3.6037011326359647e-01  4.1484330153333343e-01  4.2019965697250267e-01  3.9172866855220317e-01  3.5188861056437121e-01  3.1489131903499679e-01  2.8160121415243766e-01  2.4806642142987823e-01  2.1333894712172680e-01  1.7866738304812485e-01  1.4451095351674112e-01  1.1049828499808419e-01  7.6429747484849139e-02  4.2327262627521546e-02  8.1736837355214226e-03  -2.6098771902861799e-02  -6.0560048020820371e-02  -9.5280759496935749e-02  -1.3033035226467204e-01  -1.6574746643625760e-01  -2.0149621168320619e-01  -2.3757329606277430e-01  -2.7472809134855719e-01  -3.1410582397080838e-01  -3.5152776848591266e-01  -3.7917010377726551e-01  -4.1543743843783970e-01  -4.8458436058651005e-01  -4.9079960393236843e-01  -2.7390548962608446e-01  7.7032940259266700e-02  5.3581068632234691e-02  2.9595180879243627e-01  3.7868140868652983e-01  4.2795237492899291e-01  4.2802639721361391e-01  3.9617979986377455e-01  3.5552664800517636e-01  3.1868673814439941e-01  2.8505960027193133e-01  2.5085112094799022e-01  2.1578310886841087e-01  1.8110199281164627e-01  1.4694632541066224e-01  1.1289965408987292e-01  7.8863502214351414e-02  4.4868837863407132e-02  1.0857101356741514e-02  -2.3259888552686250e-02  -5.7562191949990925e-02  -9.2136857828363741e-02  -1.2708453255850707e-01  -1.6249510168282097e-01  -1.9840526643892795e-01  -2.3478013153805039e-01  -2.7178826910577270e-01  -3.1090158989822392e-01  -3.5202751925094600e-01  -3.8489847795358245e-01  -4.1173644775421614e-01  -4.7772245625349824e-01  -5.3010541500471375e-01  -3.5666037473534756e-01  7.3075133447274870e-02  4.1063182569859774e-02  3.0524783626346857e-01  3.8984315572291461e-01  4.3579432155944209e-01  4.3349986612110070e-01  4.0002652707629305e-01  3.5895990987910686e-01  3.2199208488688569e-01  2.8795303796882077e-01  2.5329515593357688e-01  2.1805033699221893e-01  1.8335859284333675e-01  1.4919881842869673e-01  1.1518444682866444e-01  8.1265241218520926e-02  4.7449244346546966e-02  1.3649314974792172e-02  -2.0236249695125250e-02  -5.4300789034855065e-02  -8.8644255710026654e-02  -1.2339051390392400e-01  -1.5868049250955546e-01  -1.9459441625036389e-01  -2.3115305951757495e-01  -2.6841754157255260e-01  -3.0712954403994880e-01  -3.4936445881460726e-01  -3.8863848873822798e-01  -4.1269080010774500e-01  -4.6610472488440280e-01  -5.5131049752679451e-01  -4.2831741659206207e-01  5.5347533143198992e-02  2.5165905384701766e-02  3.0178035674193976e-01  3.9439761845358512e-01  4.3847062189209551e-01  4.3677189419119666e-01  4.0319418255629491e-01  3.6196354625936555e-01  3.2463781906312333e-01  2.9023711381527345e-01  2.5535564211634132e-01  2.2003630999701962e-01  1.8533193311909538e-01  1.5120736268028792e-01  1.1730951047471953e-01  8.3586113656518468e-02  5.0023908046816397e-02  1.6522511724957365e-02  -1.7033307045896295e-02  -5.0756328164779908e-02  -8.4762540951090787e-02  -1.1918850061048429e-01  -1.5422018854468664e-01  -1.8999826816819088e-01  -2.2654352489407878e-01  -2.6398315419134061e-01  -3.0273234759138340e-01  -3.4466982039254535e-01  -3.8854510658072927e-01  -4.1552376595193680e-01  -4.5357955931882438e-01  -5.5812717525408306e-01  -4.8798678900764875e-01  2.8481958377805913e-02  7.7934786533856524e-03  2.8567463199538823e-01  3.9177977437704459e-01  4.3625146330113679e-01  4.3751864413673203e-01  4.0561725401575172e-01  3.6445605610245457e-01  3.2658386447741455e-01  2.9183781293038602e-01  2.5694781475351341e-01  2.2165390157292184e-01  1.8694330748768170e-01  1.5290092091466839e-01  1.1920730486874619e-01  8.5764945382108063e-02  5.2543279242326171e-02  1.9442406039591156e-02  -1.3668045203879443e-02  -4.6921299662486919e-02  -8.0453588974399637e-02  -1.1442120317533112e-01  -1.4903864726505453e-01  -1.8449584115616363e-01  -2.2085228439617791e-01  -2.5819310767623943e-01  -2.9709683874896248e-01  -3.3862029981880859e-01  -3.8446828958165474e-01  -4.1725930217313684e-01  -4.4173821472855190e-01  -5.5397624412942403e-01  -5.3596197159855552e-01  -3.7098852690858773e-03  -8.5781570266719714e-03  2.5755382367886420e-01  3.8076895895005763e-01  4.2934998355256793e-01  4.3521064873103993e-01  4.0707115660699628e-01  3.6648690165936304e-01  3.2789842084017695e-01  2.9270820498596339e-01  2.5794634619161982e-01  2.2281450953357360e-01  1.8813185854157094e-01  1.5419999429226425e-01  1.2078626153820127e-01  8.7725258510200146e-02  5.4951255835032915e-02  2.2366447181340822e-02  -1.0166388598911065e-02  -4.2800714599982068e-02  -7.5695387530521685e-02  -1.0903609045038799e-01  -1.4306430248424817e-01  -1.7799209885931763e-01  -2.1391640021934502e-01  -2.5092964714199378e-01  -2.8970009643421746e-01  -3.3116681928992892e-01  -3.7703644995394625e-01  -4.1563346277027574e-01  -4.3059049214992401e-01  -5.4144526682623029e-01  -5.7304113518756306e-01  -3.8932399237035321e-02  -2.0960360719243811e-02  2.1865381009731372e-01  3.5980397954956417e-01  4.1747803844188713e-01  4.2938427379632832e-01  4.0702306762775448e-01  3.6813757890464588e-01  3.2876302126134826e-01  2.9286987220068045e-01  2.5820436131814944e-01  2.2338275578277778e-01  1.8883185337509850e-01  1.5503584330092210e-01  1.2194464724453621e-01  8.9364783225632571e-02  5.7168085858586751e-02  2.5240210164953189e-02  -6.5625766549799840e-03  -3.8408858933005635e-02  -7.0482584160452721e-02  -1.0300369636279058e-01  -1.3623664870534230e-01  -1.7039653385794803e-01  -2.0559418872784344e-01  -2.4203326738339243e-01  -2.8032656055190402e-01  -3.2178904281786358e-01  -3.6697945195184872e-01  -4.0921170942173263e-01  -4.1924697212686346e-01  -5.2220080929525980e-01  -6.0016943672015344e-01  -7.6327328239935530e-02  -2.6660305336800225e-02  1.7127375198615871e-01  3.2748800627674507e-01  3.9955270837980739e-01  4.1961266267841979e-01  4.0465682934788055e-01  3.6925152043399373e-01  3.2945865655752149e-01  2.9246383409876175e-01  2.5760370190477244e-01  2.2314608272130021e-01  1.8890636203051825e-01  1.5533673037736911e-01  1.2260138453325072e-01  9.0577534471648444e-02  5.9090545250887472e-02  2.7982660461601260e-02  -2.9116400212245595e-03  -3.3778919916139571e-02  -6.4831381429102511e-02  -9.6319967813389043e-02  -1.2851389662198154e-01  -1.6161183933871925e-01  -1.9577714143978778e-01  -2.3132316421191298e-01  -2.6891000353832650e-01  -3.0997875138893077e-01  -3.5457480193385993e-01  -3.9740183698563553e-01  -4.0626415272048100e-01  -4.9716078319526935e-01  -6.1824445406893602e-01  -1.1614016844052748e-01  -2.4805888284782925e-02  1.1947074658604266e-01  2.8330286002230709e-01  3.7367010003382001e-01  4.0518347248429354e-01  3.9900708781650751e-01  3.6914237931496852e-01  3.3013173658440526e-01  2.9180491808745618e-01  2.5616256613318139e-01  2.2185702251712860e-01  1.8807615013102563e-01  1.5493252684935563e-01  1.2266460733357172e-01  9.1278598063560354e-02  6.0621773501439588e-02  3.0498039100568947e-02  7.0415955554209550e-04  -2.8976419527046753e-02  -5.8787253786985877e-02  -8.8993650733678570e-02  -1.1984862759505828e-01  -1.5155272531651612e-01  -1.8436493029257639e-01  -2.1870889549128983e-01  -2.5531093398375626e-01  -2.9562785931623453e-01  -3.3928900173646825e-01  -3.8054024593248337e-01  -3.8949574482155769e-01  -4.6701325947703276e-01  -6.2783930374184937e-01  -1.5951389644565295e-01  -1.7853098389296551e-02  6.9471084331420074e-02  2.2862104733202548e-01  3.3745585934692268e-01  3.8457560372334693e-01  3.8900533898882050e-01  3.6653646900242509e-01  3.3031228349877306e-01  2.9118980977672465e-01  2.5416056669002651e-01  2.1941583232151091e-01  1.8598439843257711e-01  1.5346503759628724e-01  1.2189854977807986e-01  9.1328128700676539e-02  6.1657009026050279e-02  3.2691640763368959e-02  4.1978169105667705e-03  -2.4074699453932192e-02  -5.2388189592649230e-02  -8.1009715021885531e-02  -1.1018187777718035e-01  -1.4016312826467375e-01  -1.7132656272019181e-01  -2.0415606512369452e-01  -2.3945512383162576e-01  -2.7865979313320427e-01  -3.2052338600551811e-01  -3.5865252019302202e-01  -3.6706201714928310e-01  -4.3202907015903130e-01  -6.2932162705706896e-01  -2.0807230309058042e-01  -1.0969763344869928e-02  2.8824088395051524e-02  1.6726164044570579e-01  2.8927929137134734e-01  3.5516826282146313e-01  3.7312770668298612e-01  3.5980055431069985e-01  3.2857037976391928e-01  2.9025828396850123e-01  2.5193330719866924e-01  2.1607283746059891e-01  1.8249338360567605e-01  1.5054646173651681e-01  1.1989677438248524e-01  9.0419618165519092e-02  6.1991673772504370e-02  3.4424953508463058e-02  7.4781280123102957e-03  -1.9117266909617830e-02  -4.5633612232219470e-02  -7.2333842319179734e-02  -9.9506891925390722e-02 