<?xml version="1.0"?>
<VTKFile type="UnstructuredGrid"  version="0.1"  >
<UnstructuredGrid>
<Piece  NumberOfPoints="1089" NumberOfCells="1024">
<Points>
<DataArray  type="Float64"  NumberOfComponents="3"  format="ascii">0 0 0  0.03125 0 0  0.0625 0 0  0.09375 0 0  0.125 0 0  0.15625 0 0  0.1875 0 0  0.21875 0 0  0.25 0 0  0.28125 0 0  0.3125 0 0  0.34375 0 0  0.375 0 0  0.40625 0 0  0.4375 0 0  0.46875 0 0  0.5 0 0  0.53125 0 0  0.5625 0 0  0.59375 0 0  0.625 0 0  0.65625 0 0  0.6875 0 0  0.71875 0 0  0.75 0 0  0.78125 0 0  0.8125 0 0  0.84375 0 0  0.875 0 0  0.90625 0 0  0.9375 0 0  0.96875 0 0  1 0 0  0 0.03125 0  0.03125 0.03125 0  0.0625 0.03125 0  0.09375 0.03125 0  0.125 0.03125 0  0.15625 0.03125 0  0.1875 0.03125 0  0.21875 0.03125 0  0.25 0.03125 0  0.28125 0.03125 0  0.3125 0.03125 0  0.34375 0.03125 0  0.375 0.03125 0  0.40625 0.03125 0  0.4375 0.03125 0  0.46875 0.03125 0  0.5 0.03125 0  0.53125 0.03125 0  0.5625 0.03125 0  0.59375 0.03125 0  0.625 0.03125 0  0.65625 0.03125 0  0.6875 0.03125 0  0.71875 0.03125 0  0.75 0.03125 0  0.78125 0.03125 0  0.8125 0.03125 0  0.84375 0.03125 0  0.875 0.03125 0  0.90625 0.03125 0  0.9375 0.03125 0  0.96875 0.03125 0  1 0.03125 0  0 0.0625 0  0.03125 0.0625 0  0.0625 0.0625 0  0.09375 0.0625 0  0.125 0.0625 0  0.15625 0.0625 0  0.1875 0.0625 0  0.21875 0.0625 0  0.25 0.0625 0  0.28125 0.0625 0  0.3125 0.0625 0  0.34375 0.0625 0  0.375 0.0625 0  0.40625 0.0625 0  0.4375 0.0625 0  0.46875 0.0625 0  0.5 0.0625 0  0.53125 0.0625 0  0.5625 0.0625 0  0.59375 0.0625 0  0.625 0.0625 0  0.65625 0.0625 0  0.6875 0.0625 0  0.71875 0.0625 0  0.75 0.0625 0  0.78125 0.0625 0  0.8125 0.0625 0  0.84375 0.0625 0  0.875 0.0625 0  0.90625 0.0625 0  0.9375 0.0625 0  0.96875 0.0625 0  1 0.0625 0  0 0.09375 0  0.03125 0.09375 0  0.0625 0.09375 0  0.09375 0.09375 0  0.125 0.09375 0  0.15625 0.09375 0  0.1875 0.09375 0  0.21875 0.09375 0  0.25 0.09375 0  0.28125 0.09375 0  0.3125 0.09375 0  0.34375 0.09375 0  0.375 0.09375 0  0.40625 0.09375 0  0.4375 0.09375 0  0.46875 0.09375 0  0.5 0.09375 0  0.53125 0.09375 0  0.5625 0.09375 0  0.59375 0.09375 0  0.625 0.09375 0  0.65625 0.09375 0  0.6875 0.09375 0  0.71875 0.09375 0  0.75 0.09375 0  0.78125 0.09375 0  0.8125 0.09375 0  0.84375 0.09375 0  0.875 0.09375 0  0.90625 0.09375 0  0.9375 0.09375 0  0.96875 0.09375 0  1 0.09375 0  0 0.125 0  0.03125 0.125 0  0.0625 0.125 0  0.09375 0.125 0  0.125 0.125 0  0.15625 0.125 0  0.1875 0.125 0  0.21875 0.125 0  0.25 0.125 0  0.28125 0.125 0  0.3125 0.125 0  0.34375 0.125 0  0.375 0.125 0  0.40625 0.125 0  0.4375 0.125 0  0.46875 0.125 0  0.5 0.125 0  0.53125 0.125 0  0.5625 0.125 0  0.59375 0.125 0  0.625 0.125 0  0.65625 0.125 0  0.6875 0.125 0  0.71875 0.125 0  0.75 0.125 0  0.78125 0.125 0  0.8125 0.125 0  0.84375 0.125 0  0.875 0.125 0  0.90625 0.125 0  0.9375 0.125 0  0.96875 0.125 0  1 0.125 0  0 0.15625 0  0.03125 0.15625 0  0.0625 0.15625 0  0.09375 0.15625 0  0.125 0.15625 0  0.15625 0.15625 0  0.1875 0.15625 0  0.21875 0.15625 0  0.25 0.15625 0  0.28125 0.15625 0  0.3125 0.15625 0  0.34375 0.15625 0  0.375 0.15625 0  0.40625 0.15625 0  0.4375 0.15625 0  0.46875 0.15625 0  0.5 0.15625 0  0.53125 0.15625 0  0.5625 0.15625 0  0.59375 0.15625 0  0.625 0.15625 0  0.65625 0.15625 0  0.6875 0.15625 0  0.71875 0.15625 0  0.75 0.15625 0  0.78125 0.15625 0  0.8125 0.15625 0  0.84375 0.15625 0  0.875 0.15625 0  0.90625 0.15625 0  0.9375 0.15625 0  0.96875 0.15625 0  1 0.15625 0  0 0.1875 0  0.03125 0.1875 0  0.0625 0.1875 0  0.09375 0.1875 0  0.125 0.1875 0  0.15625 0.1875 0  0.1875 0.1875 0  0.21875 0.1875 0  0.25 0.1875 0  0.28125 0.1875 0  0.3125 0.1875 0  0.34375 0.1875 0  0.375 0.1875 0  0.40625 0.1875 0  0.4375 0.1875 0  0.46875 0.1875 0  0.5 0.1875 0  0.53125 0.1875 0  0.5625 0.1875 0  0.59375 0.1875 0  0.625 0.1875 0  0.65625 0.1875 0  0.6875 0.1875 0  0.71875 0.1875 0  0.75 0.1875 0  0.78125 0.1875 0  0.8125 0.1875 0  0.84375 0.1875 0  0.875 0.1875 0  0.90625 0.1875 0  0.9375 0.1875 0  0.96875 0.1875 0  1 0.1875 0  0 0.21875 0  0.03125 0.21875 0  0.0625 0.21875 0  0.09375 0.21875 0  0.125 0.21875 0  0.15625 0.21875 0  0.1875 0.21875 0  0.21875 0.21875 0  0.25 0.21875 0  0.28125 0.21875 0  0.3125 0.21875 0  0.34375 0.21875 0  0.375 0.21875 0  0.40625 0.21875 0  0.4375 0.21875 0  0.46875 0.21875 0  0.5 0.21875 0  0.53125 0.21875 0  0.5625 0.21875 0  0.59375 0.21875 0  0.625 0.21875 0  0.65625 0.21875 0  0.6875 0.21875 0  0.71875 0.21875 0  0.75 0.21875 0  0.78125 0.21875 0  0.8125 0.21875 0  0.84375 0.21875 0  0.875 0.21875 0  0.90625 0.21875 0  0.9375 0.21875 0  0.96875 0.21875 0  1 0.21875 0  0 0.25 0  0.03125 0.25 0  0.0625 0.25 0  0.09375 0.25 0  0.125 0.25 0  0.15625 0.25 0  0.1875 0.25 0  0.21875 0.25 0  0.25 0.25 0  0.28125 0.25 0  0.3125 0.25 0  0.34375 0.25 0  0.375 0.25 0  0.40625 0.25 0  0.4375 0.25 0  0.46875 0.25 0  0.5 0.25 0  0.53125 0.25 0  0.5625 0.25 0  0.59375 0.25 0  0.625 0.25 0  0.65625 0.25 0  0.6875 0.25 0  0.71875 0.25 0  0.75 0.25 0  0.78125 0.25 0  0.8125 0.25 0  0.84375 0.25 0  0.875 0.25 0  0.90625 0.25 0  0.9375 0.25 0  0.96875 0.25 0  1 0.25 0  0 0.28125 0  0.03125 0.28125 0  0.0625 0.28125 0  0.09375 0.28125 0  0.125 0.28125 0  0.15625 0.28125 0  0.1875 0.28125 0  0.21875 0.28125 0  0.25 0.28125 0  0.28125 0.28125 0  0.3125 0.28125 0  0.34375 0.28125 0  0.375 0.28125 0  0.40625 0.28125 0  0.4375 0.28125 0  0.46875 0.28125 0  0.5 0.28125 0  0.53125 0.28125 0  0.5625 0.28125 0  0.59375 0.28125 0  0.625 0.28125 0  0.65625 0.28125 0  0.6875 0.28125 0  0.71875 0.28125 0  0.75 0.28125 0  0.78125 0.28125 0  0.8125 0.28125 0  0.84375 0.28125 0  0.875 0.28125 0  0.90625 0.28125 0  0.9375 0.28125 0  0.96875 0.28125 0  1 0.28125 0  0 0.3125 0  0.03125 0.3125 0  0.0625 0.3125 0  0.09375 0.3125 0  0.125 0.3125 0  0.15625 0.3125 0  0.1875 0.3125 0  0.21875 0.3125 0  0.25 0.3125 0  0.28125 0.3125 0  0.3125 0.3125 0  0.34375 0.3125 0  0.375 0.3125 0  0.40625 0.3125 0  0.4375 0.3125 0  0.46875 0.3125 0  0.5 0.3125 0  0.53125 0.3125 0  0.5625 0.3125 0  0.59375 0.3125 0  0.625 0.3125 0  0.65625 0.3125 0  0.6875 0.3125 0  0.71875 0.3125 0  0.75 0.3125 0  0.78125 0.3125 0  0.8125 0.3125 0  0.84375 0.3125 0  0.875 0.3125 0  0.90625 0.3125 0  0.9375 0.3125 0  0.96875 0.3125 0  1 0.3125 0  0 0.34375 0  0.03125 0.34375 0  0.0625 0.34375 0  0.09375 0.34375 0  0.125 0.34375 0  0.15625 0.34375 0  0.1875 0.34375 0  0.21875 0.34375 0  0.25 0.34375 0  0.28125 0.34375 0  0.3125 0.34375 0  0.34375 0.34375 0  0.375 0.34375 0  0.40625 0.34375 0  0.4375 0.34375 0  0.46875 0.34375 0  0.5 0.34375 0  0.53125 0.34375 0  0.5625 0.34375 0  0.59375 0.34375 0  0.625 0.34375 0  0.65625 0.34375 0  0.6875 0.34375 0  0.71875 0.34375 0  0.75 0.34375 0  0.78125 0.34375 0  0.8125 0.34375 0  0.84375 0.34375 0  0.875 0.34375 0  0.90625 0.34375 0  0.9375 0.34375 0  0.96875 0.34375 0  1 0.34375 0  0 0.375 0  0.03125 0.375 0  0.0625 0.375 0  0.09375 0.375 0  0.125 0.375 0  0.15625 0.375 0  0.1875 0.375 0  0.21875 0.375 0  0.25 0.375 0  0.28125 0.375 0  0.3125 0.375 0  0.34375 0.375 0  0.375 0.375 0  0.40625 0.375 0  0.4375 0.375 0  0.46875 0.375 0  0.5 0.375 0  0.53125 0.375 0  0.5625 0.375 0  0.59375 0.375 0  0.625 0.375 0  0.65625 0.375 0  0.6875 0.375 0  0.71875 0.375 0  0.75 0.375 0  0.78125 0.375 0  0.8125 0.375 0  0.84375 0.375 0  0.875 0.375 0  0.90625 0.375 0  0.9375 0.375 0  0.96875 0.375 0  1 0.375 0  0 0.40625 0  0.03125 0.40625 0  0.0625 0.40625 0  0.09375 0.40625 0  0.125 0.40625 0  0.15625 0.40625 0  0.1875 0.40625 0  0.21875 0.40625 0  0.25 0.40625 0  0.28125 0.40625 0  0.3125 0.40625 0  0.34375 0.40625 0  0.375 0.40625 0  0.40625 0.40625 0  0.4375 0.40625 0  0.46875 0.40625 0  0.5 0.40625 0  0.53125 0.40625 0  0.5625 0.40625 0  0.59375 0.40625 0  0.625 0.40625 0  0.65625 0.40625 0  0.6875 0.40625 0  0.71875 0.40625 0  0.75 0.40625 0  0.78125 0.40625 0  0.8125 0.40625 0  0.84375 0.40625 0  0.875 0.40625 0  0.90625 0.40625 0  0.9375 0.40625 0  0.96875 0.40625 0  1 0.40625 0  0 0.4375 0  0.03125 0.4375 0  0.0625 0.4375 0  0.09375 0.4375 0  0.125 0.4375 0  0.15625 0.4375 0  0.1875 0.4375 0  0.21875 0.4375 0  0.25 0.4375 0  0.28125 0.4375 0  0.3125 0.4375 0  0.34375 0.4375 0  0.375 0.4375 0  0.40625 0.4375 0  0.4375 0.4375 0  0.46875 0.4375 0  0.5 0.4375 0  0.53125 0.4375 0  0.5625 0.4375 0  0.59375 0.4375 0  0.625 0.4375 0  0.65625 0.4375 0  0.6875 0.4375 0  0.71875 0.4375 0  0.75 0.4375 0  0.78125 0.4375 0  0.8125 0.4375 0  0.84375 0.4375 0  0.875 0.4375 0  0.90625 0.4375 0  0.9375 0.4375 0  0.96875 0.4375 0  1 0.4375 0  0 0.46875 0  0.03125 0.46875 0  0.0625 0.46875 0  0.09375 0.46875 0  0.125 0.46875 0  0.15625 0.46875 0  0.1875 0.46875 0  0.21875 0.46875 0  0.25 0.46875 0  0.28125 0.46875 0  0.3125 0.46875 0  0.34375 0.46875 0  0.375 0.46875 0  0.40625 0.46875 0  0.4375 0.46875 0  0.46875 0.46875 0  0.5 0.46875 0  0.53125 0.46875 0  0.5625 0.46875 0  0.59375 0.46875 0  0.625 0.46875 0  0.65625 0.46875 0  0.6875 0.46875 0  0.71875 0.46875 0  0.75 0.46875 0  0.78125 0.46875 0  0.8125 0.46875 0  0.84375 0.46875 0  0.875 0.46875 0  0.90625 0.46875 0  0.9375 0.46875 0  0.96875 0.46875 0  1 0.46875 0  0 0.5 0  0.03125 0.5 0  0.0625 0.5 0  0.09375 0.5 0  0.125 0.5 0  0.15625 0.5 0  0.1875 0.5 0  0.21875 0.5 0  0.25 0.5 0  0.28125 0.5 0  0.3125 0.5 0  0.34375 0.5 0  0.375 0.5 0  0.40625 0.5 0  0.4375 0.5 0  0.46875 0.5 0  0.5 0.5 0  0.53125 0.5 0  0.5625 0.5 0  0.59375 0.5 0  0.625 0.5 0  0.65625 0.5 0  0.6875 0.5 0  0.71875 0.5 0  0.75 0.5 0  0.78125 0.5 0  0.8125 0.5 0  0.84375 0.5 0  0.875 0.5 0  0.90625 0.5 0  0.9375 0.5 0  0.96875 0.5 0  1 0.5 0  0 0.53125 0  0.03125 0.53125 0  0.0625 0.53125 0  0.09375 0.53125 0  0.125 0.53125 0  0.15625 0.53125 0  0.1875 0.53125 0  0.21875 0.53125 0  0.25 0.53125 0  0.28125 0.53125 0  0.3125 0.53125 0  0.34375 0.53125 0  0.375 0.53125 0  0.40625 0.53125 0  0.4375 0.53125 0  0.46875 0.53125 0  0.5 0.53125 0  0.53125 0.53125 0  0.5625 0.53125 0  0.59375 0.53125 0  0.625 0.53125 0  0.65625 0.53125 0  0.6875 0.53125 0  0.71875 0.53125 0  0.75 0.53125 0  0.78125 0.531
[...]
<PointData  Scalars="u_sol"> 
<DataArray  type="Float64"  Name="u_sol"  format="ascii">8.1457663293641311e-06  -1.8685186921166397e-04  2.8535246540175842e-04  9.4694592280444834e-04  1.4305707072925502e-03  1.3012038869106785e-03  2.5098016122211812e-03  3.2765930075860875e-03  2.1918789223228301e-03  9.2488333540583709e-03  2.3067306053959121e-02  3.2847428385105869e-02  3.3210008958782032e-02  2.1375376673826479e-02  4.5576362573436856e-05  -2.3825822160092675e-02  -4.2458701531497223e-02  -5.2329989594729169e-02  -5.1699110255505394e-02  -3.8120366528602796e-02  -1.3108972272635428e-02  1.6766474180418194e-02  4.0700971721027594e-02  5.0262796065037238e-02  4.7899448736968039e-02  3.8340851412750621e-02  2.0476223069512953e-02  5.2540544882135219e-03  -2.1673369538614590e-05  -1.1978255225155116e-03  -8.4855651546666261e-04  -3.9396625408943150e-04  6.9837700699273522e-05  -2.6117829585543952e-04  1.1814149874855232e-03  5.8518878346908243e-03  1.1228365253431247e-02  1.4181764838826584e-02  1.5959023944068493e-02  1.5539674515857766e-02  1.6713414340365843e-02  1.7996094450688178e-02  -1.6227929288022338e-03  -5.2499990769982435e-02  -1.2679843359490742e-01  -2.0899457151925496e-01  -2.8273339073801823e-01  -3.3821523100455136e-01  -3.7263090374881491e-01  -3.8730964919111771e-01  -3.8274273237640327e-01  -3.5818533991719903e-01  -3.1364325523857445e-01  -2.4943627598713580e-01  -1.6894551423010890e-01  -8.2039908699287914e-02  -6.0806623230482667e-03  4.1954756565631891e-02  6.2523752008369043e-02  6.8312107874950470e-02  5.6861629509389229e-02  3.3455589529273612e-02  1.4948633019057678e-02  4.8241380407875968e-03  7.0334134491840429e-04  -1.8252867819718146e-04  -6.5782539841788919e-04  2.9986603344310677e-03  1.0924007636871865e-02  1.6248849489130589e-02  1.6814345661158608e-02  1.3547666598362127e-02  1.0015612104530730e-02  -1.2184692037721594e-02  -7.7804036204800489e-02  -1.7712905432370155e-01  -2.8111222798775004e-01  -3.6501937910727000e-01  -4.2075102186255381e-01  -4.5278914741535120e-01  -4.6965396783530161e-01  -4.7803009500956278e-01  -4.8072743043342614e-01  -4.7817619319142074e-01  -4.7042729673212519e-01  -4.5578708080995173e-01  -4.2953885740589742e-01  -3.8399504636398790e-01  -3.1150883659790746e-01  -2.1357293115835294e-01  -1.1108299091942968e-01  -3.7317471775612635e-02  -1.8204535427317199e-03  2.0222821341969687e-02  3.0122623188743050e-02  2.2060122457651907e-02  1.0824716927998532e-02  2.9197399438898406e-03  -4.8914391933388218e-04  -1.2630539742501383e-03  6.0653029265690722e-03  1.6502009163643167e-02  1.6615985282681735e-02  9.2225479211716921e-03  -2.3910966745110543e-03  -4.6662138341307897e-02  -1.4189382646807877e-01  -2.5809564862143880e-01  -3.5452640119920326e-01  -4.1269941273740079e-01  -4.3881623712714196e-01  -4.4737572251249996e-01  -4.4933965280260152e-01  -4.4891564045017324e-01  -4.4688414119153480e-01  -4.4390850737003806e-01  -4.4137590679925875e-01  -4.4006251376404149e-01  -4.4085183171362813e-01  -4.4405120239011792e-01  -4.4546663179374679e-01  -4.3217134205862490e-01  -3.8345757103015499e-01  -2.8632556000949710e-01  -1.6002521306696721e-01  -5.8520222662628574e-02  -1.6172193281875344e-02  1.1503813495293178e-03  1.2213431261843174e-02  9.7580018783736122e-03  3.4721402306303857e-03  -6.9875223926383343e-04  -2.0994687794440854e-03  1.0048546454345268e-02  1.6846170171287391e-02  6.3260912282410925e-03  -1.1594966316312915e-02  -6.6315472321468477e-02  -1.7334862349759575e-01  -2.8938898728900969e-01  -3.6900844203210537e-01  -4.0272109467406281e-01  -4.0757922072074126e-01  -4.0233899346767255e-01  -3.9627968619562598e-01  -3.9141279688075714e-01  -3.8792993415339383e-01  -3.8574151491430864e-01  -3.8405642608137991e-01  -3.8153546431481289e-01  -3.7816678542942006e-01  -3.7550919331700605e-01  -3.7665168055243986e-01  -3.8624083552194544e-01  -4.0599512880217586e-01  -4.2417669759367382e-01  -4.0883773882400304e-01  -3.2700003399099342e-01  -1.8786076806551283e-01  -6.1365129847653709e-02  -1.0754928158706085e-02  1.9791802373097961e-04  5.4942259214584852e-03  1.9416924657344491e-03  -2.2447740194126914e-04  -1.6637600681072972e-03  1.1339275241779911e-02  6.4768106354269111e-03  -1.4678408589534052e-02  -6.8004430045183806e-02  -1.7423278261948813e-01  -2.8594267587759636e-01  -3.5313567335295476e-01  -3.7152337417352915e-01  -3.6602278453272141e-01  -3.5766952973586430e-01  -3.5369042238166998e-01  -3.5423706710377068e-01  -3.5783841596030763e-01  -3.6230244920225435e-01  -3.6546015581504693e-01  -3.6631689776954302e-01  -3.6528269599577712e-01  -3.6265046396696521e-01  -3.5800093512251496e-01  -3.5093544383054137e-01  -3.4275389898338748e-01  -3.4016987015914069e-01  -3.5472296108314783e-01  -3.8562648406138134e-01  -3.9615740217020368e-01  -3.3163620378754471e-01  -1.8792342620914268e-01  -4.9593962447280149e-02  -2.1128736252775462e-03  1.4560538580895895e-03  2.5855370333803082e-03  -9.7080007779171129e-04  1.2982353512292554e-04  5.8398223594686369e-03  -1.1413863542472896e-02  -5.7125258635880478e-02  -1.5261750984960878e-01  -2.6051434858591221e-01  -3.2380488107889560e-01  -3.3618490438293008e-01  -3.2742566912168136e-01  -3.2069474760934341e-01  -3.2105460270428982e-01  -3.2594722320831854e-01  -3.3152771463233288e-01  -3.3489309680049589e-01  -3.3551966193862282e-01  -3.3475946166556780e-01  -3.3399954702238555e-01  -3.3356525296908712e-01  -3.3351972505565464e-01  -3.3414197316115224e-01  -3.3499245862387994e-01  -3.3363361699777411e-01  -3.2598189509013775e-01  -3.1387381400120945e-01  -3.1507786524706788e-01  -3.4484387841427988e-01  -3.6755231423391305e-01  -3.0928154764207993e-01  -1.5967602145620038e-01  -2.5949334041870806e-02  3.2859909655748951e-03  -4.7920786709239652e-04  1.0530470380563628e-03  1.8432086988513622e-03  -4.3746392668620598e-03  -3.9259701459558809e-02  -1.1760961461627505e-01  -2.1967512257901828e-01  -2.8723328372058005e-01  -3.0155546389070126e-01  -2.9264340133509842e-01  -2.8743914766801892e-01  -2.9021566230076556e-01  -2.9601972307225222e-01  -2.9985869397493964e-01  -3.0019760221961495e-01  -2.9907873920341976e-01  -2.9860491932470584e-01  -2.9888485365739398e-01  -2.9902470996926295e-01  -2.9865494394321462e-01  -2.9788302455004423e-01  -2.9707903446984985e-01  -2.9735882208322922e-01  -3.0035683612472769e-01  -3.0525256065524875e-01  -3.0434900924708702e-01  -2.9098785880649730e-01  -2.8360524616746396e-01  -3.1063475336218488e-01  -3.3426401164615510e-01  -2.6551310566928077e-01  -1.0699271460120061e-01  -2.1188081432261803e-03  3.0894604977738907e-03  -1.0272480053352062e-03  3.5458631427991417e-03  -1.7349423732057175e-02  -7.6570190201392122e-02  -1.6722059842367534e-01  -2.4252645631776554e-01  -2.6690657997341133e-01  -2.6016443415395141e-01  -2.5492538428310324e-01  -2.5827152001762205e-01  -2.6380636003201707e-01  -2.6623530852640731e-01  -2.6559758813724654e-01  -2.6550181804128709e-01  -2.6720354083869552e-01  -2.6924995094559573e-01  -2.7057797704175351e-01  -2.7126795761786499e-01  -2.7154612548036933e-01  -2.7146078767719584e-01  -2.7082564855440616e-01  -2.6916323121600538e-01  -2.6679956414656292e-01  -2.6693870725474883e-01  -2.7279968781065578e-01  -2.7631597151885523e-01  -2.6370780619746498e-01  -2.5455704215459135e-01  -2.8329520799159325e-01  -2.9600538234191909e-01  -1.9927023481180314e-01  -4.1690058366300520e-02  6.2184688515056711e-03  -3.5446567484728074e-03  5.2998935577398204e-03  -3.2866694161257738e-02  -1.0742811898565066e-01  -1.8649632419014606e-01  -2.2767959346863853e-01  -2.2856568224210150e-01  -2.2234117362100420e-01  -2.2491175677306269e-01  -2.3040509740301338e-01  -2.3269064794751329e-01  -2.3231985174808192e-01  -2.3334271451662417e-01  -2.3605018229203062e-01  -2.3803356028371300e-01  -2.3886980882534128e-01  -2.3933126334713831e-01  -2.3975478536360692e-01  -2.4020187367248863e-01  -2.4072139712808216e-01  -2.4149003496616750e-01  -2.4252502017984862e-01  -2.4259813679230249e-01  -2.3983794338518619e-01  -2.3729815990546613e-01  -2.4210182631596017e-01  -2.4601883784251927e-01  -2.3182360335733807e-01  -2.2757553737981148e-01  -2.5995341273160655e-01  -2.4286562092110112e-01  -1.0969154624425334e-01  3.9743681538867105e-03  -1.1233404318951681e-06  6.3222731003435831e-03  -4.4468954839183839e-02  -1.1966243123362211e-01  -1.7700842513638093e-01  -1.9447319992622455e-01  -1.9003573370205620e-01  -1.9038882678924751e-01  -1.9605611399762868e-01  -1.9929144523467218e-01  -1.9958313926643598e-01  -2.0101175946843874e-01  -2.0392628465219964e-01  -2.0562901569143216e-01  -2.0630242209690869e-01  -2.0717194504923833e-01  -2.0820004759738045e-01  -2.0911911934381811e-01  -2.0980841355539348e-01  -2.1024622413108274e-01  -2.1043751162409241e-01  -2.1076337004031193e-01  -2.1223055861542242e-01  -2.1398387932883514e-01  -2.1193026050105215e-01  -2.0856559399087338e-01  -2.1335523093510617e-01  -2.1410223762154018e-01  -1.9733706218330796e-01  -2.0585818981888615e-01  -2.3122615753282383e-01  -1.5877598871419468e-01  -2.1908165231617354e-02  7.5097678634152652e-03  6.5344842631937603e-03  -4.7593931018646549e-02  -1.1304558828635686e-01  -1.5069966741792731e-01  -1.5730957708270005e-01  -1.5568232021533487e-01  -1.6051538205678650e-01  -1.6544899073189018e-01  -1.6690395900859653e-01  -1.6831142003056279e-01  -1.7122131243983041e-01  -1.7313146578861804e-01  -1.7404136032148471e-01  -1.7545437910235390e-01  -1.7702034241629250e-01  -1.7831450326569567e-01  -1.7940678670245946e-01  -1.8038976667894990e-01  -1.8133511776186764e-01  -1.8218359206286261e-01  -1.8249622499930043e-01  -1.8215695698203019e-01  -1.8309023230457719e-01  -1.8522231204031098e-01  -1.8289119848009219e-01  -1.8018933938452250e-01  -1.8555883833662576e-01  -1.7870299265575257e-01  -1.6553832985049197e-01  -1.8896094051309195e-01  -1.7324732809123902e-01  -5.0183498215621236e-02  1.5682974329261811e-02  6.1769484313668431e-03  -4.2412552670213967e-02  -9.4361346353225975e-02  -1.1841227811195605e-01  -1.2219637388132626e-01  -1.2434388435611783e-01  -1.3048850710232449e-01  -1.3394007473186581e-01  -1.3554689690686575e-01  -1.3820613141231841e-01  -1.4064934703085433e-01  -1.4191696866163828e-01  -1.4351781030312069e-01  -1.4529180711234671e-01  -1.4662363003173293e-01  -1.4778631018938237e-01  -1.4893436842522847e-01  -1.5007672596437957e-01  -1.5117656194700047e-01  -1.5232107270424416e-01  -1.5374820706707221e-01  -1.5473060269416991e-01  -1.5436519149228697e-01  -1.5529169038446106e-01  -1.5697477993854436e-01  -1.5336224481980265e-01  -1.5333135673994702e-01  -1.5602239973340637e-01  -1.4036704583084761e-01  -1.4439204815411089e-01  -1.5720843594472636e-01  -6.6569715563176410e-02  1.8588545670937602e-02  5.5446363235221044e-03  -3.2162419668162238e-02  -7.0433462939093541e-02  -8.6251847883240612e-02  -9.0153183910470461e-02  -9.4552675925787075e-02  -1.0019954162041315e-01  -1.0294011182620363e-01  -1.0524602987820256e-01  -1.0801935143908376e-01  -1.0986178670395469e-01  -1.1143304926505541e-01  -1.1328847170684421e-01  -1.1476276699877311e-01  -1.1607644328799176e-01  -1.1751359598421475e-01  -1.1895488949688682e-01  -1.2036235353804381e-01  -1.2176027545980453e-01  -1.2302997926871580e-01  -1.2416848593143154e-01  -1.2586539002995048e-01  -1.2719915331631387e-01  -1.2701313787115776e-01  -1.2868905179774445e-01  -1.2872832822292771e-01  -1.2486756502271128e-01  -1.2826488265497557e-01  -1.2054425004537579e-01  -1.0969890220356562e-01  -1.2717485751415358e-01  -7.1152821408813988e-02  1.6447949059633180e-02  4.4928142473841005e-03  -1.9612150173531247e-02  -4.5737818453543064e-02  -5.6264693719562775e-02  -6.0693527061161989e-02  -6.5599777372768411e-02  -7.0271495251367069e-02  -7.2824767516839695e-02  -7.5401234712318049e-02  -7.7789953480326468e-02  -7.9489857868087502e-02  -8.1234397231875019e-02  -8.2883664477877053e-02  -8.4285475594124082e-02  -8.5804067472737819e-02  -8.7349863824741858e-02  -8.8868451500476120e-02  -9.0457654781311042e-02  -9.2120639751265054e-02  -9.3951795929558851e-02  -9.5675088252734047e-02  -9.7065570922004851e-02  -9.9151985120222552e-02  -1.0037249090812717e-01  -1.0083983273120779e-01  -1.0310830346179474e-01  -1.0034559102831878e-01  -1.0037090766058859e-01  -1.0012972822819435e-01  -8.4852347694013786e-02  -9.6540224762491467e-02  -6.6904191754726214e-02  1.2176014513911169e-02  3.3194173556304451e-03  -7.0345948863379890e-03  -2.1858330401169353e-02  -2.8722974936509708e-02  -3.2951520999431411e-02  -3.7407200059822204e-02  -4.0992552830987253e-02  -4.3445989317849140e-02  -4.5803634758261887e-02  -4.7816501968119242e-02  -4.9433901628460938e-02  -5.1059679881948775e-02  -5.2522800080748035e-02  -5.3961317119329208e-02  -5.5485678219191252e-02  -5.7026539929821887e-02  -5.8681403456878785e-02  -6.0496994981153844e-02  -6.2440971992388711e-02  -6.4445583502717410e-02  -6.6786431607042229e-02  -6.9023714441692516e-02  -7.1047097428250688e-02  -7.3675197026655426e-02  -7.4646919541030976e-02  -7.6927671061823868e-02  -7.7437278091873035e-02  -7.5191892660194506e-02  -7.8586280148300880e-02  -6.5922279180653659e-02  -7.0872542969358257e-02  -5.8622945208216606e-02  8.0382160779471721e-03  9.3575494705071065e-04  5.4557615963269530e-03  5.2445021183465028e-04  -2.6094601859509778e-03  -6.4961627939745803e-03  -9.7407154525524457e-03  -1.2405519482468806e-02  -1.4513889684276474e-02  -1.6478154894836245e-02  -1.8092090530690962e-02  -1.9537672536022302e-02  -2.0915690175035431e-02  -2.2226628014665354e-02  -2.3585924520002910e-02  -2.5038847826569045e-02  -2.6617940950648691e-02  -2.8417254771606306e-02  -3.0412721145810943e-02  -3.2664300118247717e-02  -3.5169509761174167e-02  -3.7732049831012672e-02  -4.0758023035907476e-02  -4.3497201186128480e-02  -4.6675051463972175e-02  -4.9356980811902422e-02  -5.1475479565312482e-02  -5.4712175148501289e-02  -5.2907726398069038e-02  -5.7228030478547423e-02  -5.0061805585233585e-02  -5.0801599423076320e-02  -4.9194022721168199e-02  4.7560965156305153e-03  -1.1528790570971804e-03  1.7629416242917646e-02  2.2068886422133633e-02  2.2737348150538992e-02  1.9411496844668138e-02  1.7375847374198967e-02  1.5798373406822327e-02  1.4035225476091963e-02  1.2637881436743938e-02  1.1424533046750533e-02  1.0274276764969057e-02  9.1860181816692497e-03  8.0963258795090417e-03  6.8833194305584679e-03  5.5412282612596116e-03  3.9488116317444562e-03  2.0982884329455486e-03  -9.3571683468066135e-05  -2.5842237578094381e-03  -5.4962706497075110e-03  -8.7248903259539053e-03  -1.2243024573594158e-02  -1.6061634136301062e-02  -1.9835005119261142e-02  -2.4140878395914868e-02  -2.7121289187128264e-02  -3.2019481314437909e-02  -3.2553022266811060e-02  -3.7163186046145505e-02  -3.5621846744294354e-02  -3.5078263057265129e-02  -4.0139852405545101e-02  2.3733462723499799e-03  -3.0162920273546457e-03  2.8376959355860733e-02  4.3600354060282932e-02  4.7625780231558425e-02  4.5573998665521406e-02  4.4004976522995634e-02  4.3875019827335750e-02  4.2361935768859590e-02  4.1567007620558025e-02  4.0818035260797948e-02  4.0032777816130988e-02  3.9284754305856893e-02  3.8513310614163784e-02  3.7521734907172380e-02  3.6332593687375229e-02  3.4834129875220200e-02  3.2924210219343920e-02  3.0620595030805699e-02  2.7784271549286341e-02  2.4494233323205584e-02  2.0674817311821001e-02  1.6443385415645159e-02  1.1661367754159577e-02  6.8003687692301329e-03  1.2564805193835548e-03  -3.5113306437262047e-03  -9.5922747916626517e-03  -1.3213403722588515e-02  -1.8641414221291515e-02  -2.1911426259269964e-02  -2.2371309770613888e-02  -3.1854222497975496e-02  6.9769746634001982e-04  -5.3765782218658372e-03  3.6370099259619128e-02  6.4954611885001207e-02  7.2608071724468704e-02  7.2359869682830813e-02  7.0556933765130961e-02  7.1725131558315364e-02  7.0810895573237179e-02  7.0300818976155477e-02  7.0230669029159837e-02  6.9839697818988966e-02  6.9496620743396173e-02  6.9095228117423010e-02  6.8432462535297334e-02  6.7450389021649140e-02  6.6091142319702367e-02  6.4227291369531397e-02  6.1766834132968677e-02  5.8673961981301863e-02  5.4972481120956394e-02  5.0575482365039177e-02  4.5480141062361326e-02  3.9815143588815806e-02  3.3552459772294721e-02  2.6847112760558661e-02  1.9874752395500798e-02  1.2522474128116218e-02  5.6722943398149909e-03  -1.3461362799371793e-03  -8.6471722266499573e-03  -1.1554999566602378e-02  -2.4367298253258896e-02  -3.2053760277894495e-04  -7.7292179553059438e-03  4.0250704543186633e-02  8.5003385106065033e-02  9.7935654106385620e-02  9.9769821833168612e-02  9.7505519606415278e-02  9.9088896392928089e-02  9.9426965536448114e-02  9.8815622760129618e-02  9.9400769528924737e-02  9.9626680666535350e-02  9.9690011684137145e-02  9.9793590605951402e-02  9.9590251721988210e-02  9.8931515620961835e-02  9.7770136040447694e-02  9.6003256254895905e-02  9.3526595018658829e-02  9.0278724319879711e-02  8.6178276709967402e-02  8.1080732837736494e-02  7.5185699567993022e-02  6.8510448377677127e-02  6.0798085610841046e-02  5.2694682220273334e-02  4.3540261088220518e-02  3.4420226794271251e-02  2.4555665506434721e-02  1.5183762625988646e-02  4.2652470550331419e-03  -1.8488493486931393e-03  -1.7701381993786350e-02  -7.5871635269096854e-04  -8.8985370849418936e-03  3.8695735851454298e-02  1.0075147378982081e-01  1.2347276470154836e-01  1.2770489157914452e-01  1.2550270906926458e-01  1.2610000827867224e-01  1.2813717326880142e-01  1.2784632211979693e-01  1.2851154344117485e-01  1.2975769523045219e-01  1.3035718347036293e-01  1.3088926108120083e-01  1.3128533316987812e-01  1.3115627682330366e-01  1.3032907106440819e-01  1.2872838405792794e-01  1.2622783978575572e-01  1.2273426252763556e-01  1.1811604191019529e-01  1.1246258120820316e-01  1.0589806662710328e-01  9.7900817812652377e-02  8.8820421715334621e-02  7.9143946489509703e-02  6.7728467189590094e-02  5.6434598498984863e-02  4.3885334390825564e-02  3.1086135153237590e-02  1.7235619198969411e-02  7.0084821710797727e-03  -1.1920090432532339e-02  -8.9119159253339046e-04  -8.1641583978962796e-03  3.1154039811547466e-02  1.0758853869945578e-01  1.4694885419052800e-01  1.5552680705655769e-01  1.5412980032373591e-01  1.5294637176985726e-01  1.5551737768825838e-01  1.5681609574924574e-01  1.5714760324077665e-01  1.5901599410970518e-01  1.6092433069028242e-01  1.6210435173765383e-01  1.6298840913028248e-01  1.6346041154016305e-01  1.6318724424139558e-01  1.6193987284167319e-01  1.5959894731613850e-01  1.5606257704298304e-01  1.5126929667765687e-01  1.4527826639021860e-01  1.3756104409659728e-01  1.2820517609813373e-01  1.1816349777948434e-01  1.0643008928094023e-01  9.2596345706507988e-02  7.9291108123422563e-02  6.3625676803243519e-02  4.6852446323461021e-02  3.0503210528756423e-02  1.5124615029240321e-02  -7.1686734018923262e-03  -9.8003258896890537e-04  -5.1098812971656932e-03  1.8645221501988912e-02  1.0008421258881069e-01  1.6355327675873288e-01  1.8283083716429124e-01  1.8357024133262587e-01  1.8118451727155344e-01  1.8245966906191086e-01  1.8580606155104504e-01  1.8730335077709470e-01  1.8884936477348768e-01  1.9173537487017078e-01  1.9448036829477167e-01  1.9634724699328343e-01  1.9743947828599123e-01  1.9767197843022372e-01  1.9683048867490455e-01  1.9469549107462963e-01  1.9113702954693873e-01  1.8603545045112180e-01  1.7903461036647650e-01  1.7025424704423925e-01  1.6051375513565747e-01  1.4903295428056704e-01  1.3438586758419496e-01  1.1892502329872486e-01  1.0348962755199362e-01  8.3781997721149748e-02  6.2983671278633871e-02  4.4375653401294471e-02  2.2734629488066319e-02  -3.6706687753892951e-03  -1.7355631344219927e-03  -1.9036668582467374e-03  5.8358368963330994e-03  7.7512701554635494e-02  1.6391952529798981e-01  2.0485698840507374e-01  2.1161396878586566e-01  2.0933331689337784e-01  2.0834400626440963e-01  2.1166538675242516e-01  2.1600357195292749e-01  2.1885449155673492e-01  2.2178038902945463e-01  2.2549595794504068e-01  2.2897506633901926e-01  2.3142177340608266e-01  2.3260578048175476e-01  2.3237326