<?xml version="1.0"?>
<VTKFile type="UnstructuredGrid"  version="0.1"  >
<UnstructuredGrid>
<Piece  NumberOfPoints="1089" NumberOfCells="1024">
<Points>
<DataArray  type="Float64"  NumberOfComponents="3"  format="ascii">0 0 0  0.03125 0 0  0.0625 0 0  0.09375 0 0  0.125 0 0  0.15625 0 0  0.1875 0 0  0.21875 0 0  0.25 0 0  0.28125 0 0  0.3125 0 0  0.34375 0 0  0.375 0 0  0.40625 0 0  0.4375 0 0  0.46875 0 0  0.5 0 0  0.53125 0 0  0.5625 0 0  0.59375 0 0  0.625 0 0  0.65625 0 0  0.6875 0 0  0.71875 0 0  0.75 0 0  0.78125 0 0  0.8125 0 0  0.84375 0 0  0.875 0 0  0.90625 0 0  0.9375 0 0  0.96875 0 0  1 0 0  0 0.03125 0  0.03125 0.03125 0  0.0625 0.03125 0  0.09375 0.03125 0  0.125 0.03125 0  0.15625 0.03125 0  0.1875 0.03125 0  0.21875 0.03125 0  0.25 0.03125 0  0.28125 0.03125 0  0.3125 0.03125 0  0.34375 0.03125 0  0.375 0.03125 0  0.40625 0.03125 0  0.4375 0.03125 0  0.46875 0.03125 0  0.5 0.03125 0  0.53125 0.03125 0  0.5625 0.03125 0  0.59375 0.03125 0  0.625 0.03125 0  0.65625 0.03125 0  0.6875 0.03125 0  0.71875 0.03125 0  0.75 0.03125 0  0.78125 0.03125 0  0.8125 0.03125 0  0.84375 0.03125 0  0.875 0.03125 0  0.90625 0.03125 0  0.9375 0.03125 0  0.96875 0.03125 0  1 0.03125 0  0 0.0625 0  0.03125 0.0625 0  0.0625 0.0625 0  0.09375 0.0625 0  0.125 0.0625 0  0.15625 0.0625 0  0.1875 0.0625 0  0.21875 0.0625 0  0.25 0.0625 0  0.28125 0.0625 0  0.3125 0.0625 0  0.34375 0.0625 0  0.375 0.0625 0  0.40625 0.0625 0  0.4375 0.0625 0  0.46875 0.0625 0  0.5 0.0625 0  0.53125 0.0625 0  0.5625 0.0625 0  0.59375 0.0625 0  0.625 0.0625 0  0.65625 0.0625 0  0.6875 0.0625 0  0.71875 0.0625 0  0.75 0.0625 0  0.78125 0.0625 0  0.8125 0.0625 0  0.84375 0.0625 0  0.875 0.0625 0  0.90625 0.0625 0  0.9375 0.0625 0  0.96875 0.0625 0  1 0.0625 0  0 0.09375 0  0.03125 0.09375 0  0.0625 0.09375 0  0.09375 0.09375 0  0.125 0.09375 0  0.15625 0.09375 0  0.1875 0.09375 0  0.21875 0.09375 0  0.25 0.09375 0  0.28125 0.09375 0  0.3125 0.09375 0  0.34375 0.09375 0  0.375 0.09375 0  0.40625 0.09375 0  0.4375 0.09375 0  0.46875 0.09375 0  0.5 0.09375 0  0.53125 0.09375 0  0.5625 0.09375 0  0.59375 0.09375 0  0.625 0.09375 0  0.65625 0.09375 0  0.6875 0.09375 0  0.71875 0.09375 0  0.75 0.09375 0  0.78125 0.09375 0  0.8125 0.09375 0  0.84375 0.09375 0  0.875 0.09375 0  0.90625 0.09375 0  0.9375 0.09375 0  0.96875 0.09375 0  1 0.09375 0  0 0.125 0  0.03125 0.125 0  0.0625 0.125 0  0.09375 0.125 0  0.125 0.125 0  0.15625 0.125 0  0.1875 0.125 0  0.21875 0.125 0  0.25 0.125 0  0.28125 0.125 0  0.3125 0.125 0  0.34375 0.125 0  0.375 0.125 0  0.40625 0.125 0  0.4375 0.125 0  0.46875 0.125 0  0.5 0.125 0  0.53125 0.125 0  0.5625 0.125 0  0.59375 0.125 0  0.625 0.125 0  0.65625 0.125 0  0.6875 0.125 0  0.71875 0.125 0  0.75 0.125 0  0.78125 0.125 0  0.8125 0.125 0  0.84375 0.125 0  0.875 0.125 0  0.90625 0.125 0  0.9375 0.125 0  0.96875 0.125 0  1 0.125 0  0 0.15625 0  0.03125 0.15625 0  0.0625 0.15625 0  0.09375 0.15625 0  0.125 0.15625 0  0.15625 0.15625 0  0.1875 0.15625 0  0.21875 0.15625 0  0.25 0.15625 0  0.28125 0.15625 0  0.3125 0.15625 0  0.34375 0.15625 0  0.375 0.15625 0  0.40625 0.15625 0  0.4375 0.15625 0  0.46875 0.15625 0  0.5 0.15625 0  0.53125 0.15625 0  0.5625 0.15625 0  0.59375 0.15625 0  0.625 0.15625 0  0.65625 0.15625 0  0.6875 0.15625 0  0.71875 0.15625 0  0.75 0.15625 0  0.78125 0.15625 0  0.8125 0.15625 0  0.84375 0.15625 0  0.875 0.15625 0  0.90625 0.15625 0  0.9375 0.15625 0  0.96875 0.15625 0  1 0.15625 0  0 0.1875 0  0.03125 0.1875 0  0.0625 0.1875 0  0.09375 0.1875 0  0.125 0.1875 0  0.15625 0.1875 0  0.1875 0.1875 0  0.21875 0.1875 0  0.25 0.1875 0  0.28125 0.1875 0  0.3125 0.1875 0  0.34375 0.1875 0  0.375 0.1875 0  0.40625 0.1875 0  0.4375 0.1875 0  0.46875 0.1875 0  0.5 0.1875 0  0.53125 0.1875 0  0.5625 0.1875 0  0.59375 0.1875 0  0.625 0.1875 0  0.65625 0.1875 0  0.6875 0.1875 0  0.71875 0.1875 0  0.75 0.1875 0  0.78125 0.1875 0  0.8125 0.1875 0  0.84375 0.1875 0  0.875 0.1875 0  0.90625 0.1875 0  0.9375 0.1875 0  0.96875 0.1875 0  1 0.1875 0  0 0.21875 0  0.03125 0.21875 0  0.0625 0.21875 0  0.09375 0.21875 0  0.125 0.21875 0  0.15625 0.21875 0  0.1875 0.21875 0  0.21875 0.21875 0  0.25 0.21875 0  0.28125 0.21875 0  0.3125 0.21875 0  0.34375 0.21875 0  0.375 0.21875 0  0.40625 0.21875 0  0.4375 0.21875 0  0.46875 0.21875 0  0.5 0.21875 0  0.53125 0.21875 0  0.5625 0.21875 0  0.59375 0.21875 0  0.625 0.21875 0  0.65625 0.21875 0  0.6875 0.21875 0  0.71875 0.21875 0  0.75 0.21875 0  0.78125 0.21875 0  0.8125 0.21875 0  0.84375 0.21875 0  0.875 0.21875 0  0.90625 0.21875 0  0.9375 0.21875 0  0.96875 0.21875 0  1 0.21875 0  0 0.25 0  0.03125 0.25 0  0.0625 0.25 0  0.09375 0.25 0  0.125 0.25 0  0.15625 0.25 0  0.1875 0.25 0  0.21875 0.25 0  0.25 0.25 0  0.28125 0.25 0  0.3125 0.25 0  0.34375 0.25 0  0.375 0.25 0  0.40625 0.25 0  0.4375 0.25 0  0.46875 0.25 0  0.5 0.25 0  0.53125 0.25 0  0.5625 0.25 0  0.59375 0.25 0  0.625 0.25 0  0.65625 0.25 0  0.6875 0.25 0  0.71875 0.25 0  0.75 0.25 0  0.78125 0.25 0  0.8125 0.25 0  0.84375 0.25 0  0.875 0.25 0  0.90625 0.25 0  0.9375 0.25 0  0.96875 0.25 0  1 0.25 0  0 0.28125 0  0.03125 0.28125 0  0.0625 0.28125 0  0.09375 0.28125 0  0.125 0.28125 0  0.15625 0.28125 0  0.1875 0.28125 0  0.21875 0.28125 0  0.25 0.28125 0  0.28125 0.28125 0  0.3125 0.28125 0  0.34375 0.28125 0  0.375 0.28125 0  0.40625 0.28125 0  0.4375 0.28125 0  0.46875 0.28125 0  0.5 0.28125 0  0.53125 0.28125 0  0.5625 0.28125 0  0.59375 0.28125 0  0.625 0.28125 0  0.65625 0.28125 0  0.6875 0.28125 0  0.71875 0.28125 0  0.75 0.28125 0  0.78125 0.28125 0  0.8125 0.28125 0  0.84375 0.28125 0  0.875 0.28125 0  0.90625 0.28125 0  0.9375 0.28125 0  0.96875 0.28125 0  1 0.28125 0  0 0.3125 0  0.03125 0.3125 0  0.0625 0.3125 0  0.09375 0.3125 0  0.125 0.3125 0  0.15625 0.3125 0  0.1875 0.3125 0  0.21875 0.3125 0  0.25 0.3125 0  0.28125 0.3125 0  0.3125 0.3125 0  0.34375 0.3125 0  0.375 0.3125 0  0.40625 0.3125 0  0.4375 0.3125 0  0.46875 0.3125 0  0.5 0.3125 0  0.53125 0.3125 0  0.5625 0.3125 0  0.59375 0.3125 0  0.625 0.3125 0  0.65625 0.3125 0  0.6875 0.3125 0  0.71875 0.3125 0  0.75 0.3125 0  0.78125 0.3125 0  0.8125 0.3125 0  0.84375 0.3125 0  0.875 0.3125 0  0.90625 0.3125 0  0.9375 0.3125 0  0.96875 0.3125 0  1 0.3125 0  0 0.34375 0  0.03125 0.34375 0  0.0625 0.34375 0  0.09375 0.34375 0  0.125 0.34375 0  0.15625 0.34375 0  0.1875 0.34375 0  0.21875 0.34375 0  0.25 0.34375 0  0.28125 0.34375 0  0.3125 0.34375 0  0.34375 0.34375 0  0.375 0.34375 0  0.40625 0.34375 0  0.4375 0.34375 0  0.46875 0.34375 0  0.5 0.34375 0  0.53125 0.34375 0  0.5625 0.34375 0  0.59375 0.34375 0  0.625 0.34375 0  0.65625 0.34375 0  0.6875 0.34375 0  0.71875 0.34375 0  0.75 0.34375 0  0.78125 0.34375 0  0.8125 0.34375 0  0.84375 0.34375 0  0.875 0.34375 0  0.90625 0.34375 0  0.9375 0.34375 0  0.96875 0.34375 0  1 0.34375 0  0 0.375 0  0.03125 0.375 0  0.0625 0.375 0  0.09375 0.375 0  0.125 0.375 0  0.15625 0.375 0  0.1875 0.375 0  0.21875 0.375 0  0.25 0.375 0  0.28125 0.375 0  0.3125 0.375 0  0.34375 0.375 0  0.375 0.375 0  0.40625 0.375 0  0.4375 0.375 0  0.46875 0.375 0  0.5 0.375 0  0.53125 0.375 0  0.5625 0.375 0  0.59375 0.375 0  0.625 0.375 0  0.65625 0.375 0  0.6875 0.375 0  0.71875 0.375 0  0.75 0.375 0  0.78125 0.375 0  0.8125 0.375 0  0.84375 0.375 0  0.875 0.375 0  0.90625 0.375 0  0.9375 0.375 0  0.96875 0.375 0  1 0.375 0  0 0.40625 0  0.03125 0.40625 0  0.0625 0.40625 0  0.09375 0.40625 0  0.125 0.40625 0  0.15625 0.40625 0  0.1875 0.40625 0  0.21875 0.40625 0  0.25 0.40625 0  0.28125 0.40625 0  0.3125 0.40625 0  0.34375 0.40625 0  0.375 0.40625 0  0.40625 0.40625 0  0.4375 0.40625 0  0.46875 0.40625 0  0.5 0.40625 0  0.53125 0.40625 0  0.5625 0.40625 0  0.59375 0.40625 0  0.625 0.40625 0  0.65625 0.40625 0  0.6875 0.40625 0  0.71875 0.40625 0  0.75 0.40625 0  0.78125 0.40625 0  0.8125 0.40625 0  0.84375 0.40625 0  0.875 0.40625 0  0.90625 0.40625 0  0.9375 0.40625 0  0.96875 0.40625 0  1 0.40625 0  0 0.4375 0  0.03125 0.4375 0  0.0625 0.4375 0  0.09375 0.4375 0  0.125 0.4375 0  0.15625 0.4375 0  0.1875 0.4375 0  0.21875 0.4375 0  0.25 0.4375 0  0.28125 0.4375 0  0.3125 0.4375 0  0.34375 0.4375 0  0.375 0.4375 0  0.40625 0.4375 0  0.4375 0.4375 0  0.46875 0.4375 0  0.5 0.4375 0  0.53125 0.4375 0  0.5625 0.4375 0  0.59375 0.4375 0  0.625 0.4375 0  0.65625 0.4375 0  0.6875 0.4375 0  0.71875 0.4375 0  0.75 0.4375 0  0.78125 0.4375 0  0.8125 0.4375 0  0.84375 0.4375 0  0.875 0.4375 0  0.90625 0.4375 0  0.9375 0.4375 0  0.96875 0.4375 0  1 0.4375 0  0 0.46875 0  0.03125 0.46875 0  0.0625 0.46875 0  0.09375 0.46875 0  0.125 0.46875 0  0.15625 0.46875 0  0.1875 0.46875 0  0.21875 0.46875 0  0.25 0.46875 0  0.28125 0.46875 0  0.3125 0.46875 0  0.34375 0.46875 0  0.375 0.46875 0  0.40625 0.46875 0  0.4375 0.46875 0  0.46875 0.46875 0  0.5 0.46875 0  0.53125 0.46875 0  0.5625 0.46875 0  0.59375 0.46875 0  0.625 0.46875 0  0.65625 0.46875 0  0.6875 0.46875 0  0.71875 0.46875 0  0.75 0.46875 0  0.78125 0.46875 0  0.8125 0.46875 0  0.84375 0.46875 0  0.875 0.46875 0  0.90625 0.46875 0  0.9375 0.46875 0  0.96875 0.46875 0  1 0.46875 0  0 0.5 0  0.03125 0.5 0  0.0625 0.5 0  0.09375 0.5 0  0.125 0.5 0  0.15625 0.5 0  0.1875 0.5 0  0.21875 0.5 0  0.25 0.5 0  0.28125 0.5 0  0.3125 0.5 0  0.34375 0.5 0  0.375 0.5 0  0.40625 0.5 0  0.4375 0.5 0  0.46875 0.5 0  0.5 0.5 0  0.53125 0.5 0  0.5625 0.5 0  0.59375 0.5 0  0.625 0.5 0  0.65625 0.5 0  0.6875 0.5 0  0.71875 0.5 0  0.75 0.5 0  0.78125 0.5 0  0.8125 0.5 0  0.84375 0.5 0  0.875 0.5 0  0.90625 0.5 0  0.9375 0.5 0  0.96875 0.5 0  1 0.5 0  0 0.53125 0  0.03125 0.53125 0  0.0625 0.53125 0  0.09375 0.53125 0  0.125 0.53125 0  0.15625 0.53125 0  0.1875 0.53125 0  0.21875 0.53125 0  0.25 0.53125 0  0.28125 0.53125 0  0.3125 0.53125 0  0.34375 0.53125 0  0.375 0.53125 0  0.40625 0.53125 0  0.4375 0.53125 0  0.46875 0.53125 0  0.5 0.53125 0  0.53125 0.53125 0  0.5625 0.53125 0  0.59375 0.53125 0  0.625 0.53125 0  0.65625 0.53125 0  0.6875 0.53125 0  0.71875 0.53125 0  0.75 0.53125 0  0.78125 0.531
[...]
<PointData  Scalars="v_sol"> 
<DataArray  type="Float64"  Name="v_sol"  format="ascii">-1.3272100916874168e-05  2.6236286066112731e-04  5.3936711182116378e-04  4.3434056934839603e-04  2.5028530471568464e-04  2.5730485735282526e-04  -3.5614976882747509e-04  7.7838036143757004e-04  1.1368275493612843e-03  -1.3028090116564595e-03  -5.3254563045591636e-03  -8.8198926825520420e-03  -9.6354122830730974e-03  -7.8969927273587759e-03  -5.0277205671821097e-03  -2.4408729180246461e-03  3.2275057411884740e-05  3.0445206667032471e-03  4.7842250429601541e-03  6.0784548346827175e-03  7.1050808143343332e-03  7.7158735025008775e-03  7.5264252835354848e-03  5.6049966642772522e-03  3.2398854950620426e-03  1.0797818283970260e-03  -8.1855670281612140e-04  -3.3731381994717806e-03  -2.7760304774922559e-03  -1.4286086240796404e-03  -5.3258804517585716e-04  -1.5919608629975970e-04  5.9345288928976537e-05  2.7277915548471198e-04  -1.3628196094776039e-03  -2.9744529441309230e-03  -2.3412901374974763e-03  -1.1305317351044779e-03  -8.2887920145168273e-04  -2.8280080513263492e-04  -2.0230885135072334e-03  -1.7284625748752720e-03  4.0454267295454323e-03  1.8762505997761830e-02  3.3584300758487479e-02  4.2159328139857025e-02  4.3018145300765545e-02  3.6891975511231398e-02  2.5626865249319491e-02  1.1133218512937523e-02  -4.9666941863987712e-03  -2.1781464978079704e-02  -3.8742463826325034e-02  -5.2178518965821680e-02  -5.6898399704926106e-02  -4.8169929295374038e-02  -2.8521168862950020e-02  -9.4641730572393931e-03  4.0799567521684127e-03  1.4215966649522425e-02  1.7832832859798694e-02  1.2667002373975418e-02  6.4566185409101282e-03  2.4165400236770343e-03  5.3332256332023510e-04  -3.3051428535645782e-04  4.4796545928212984e-04  -6.3349110810283649e-03  -9.6842199471745879e-03  -6.5805786905914427e-03  -1.6783978726095236e-03  2.4988799178745193e-04  1.0629468218065960e-03  1.1354480663290407e-02  4.1176885077489289e-02  8.0689692119617865e-02  1.0907441838793085e-01  1.1804040165639135e-01  1.0911362506295268e-01  8.9246528115242141e-02  6.4627381819096760e-02  3.8647269966675765e-02  1.2288473663392981e-02  -1.5169323562353926e-02  -4.5089670170454739e-02  -7.7143245111534239e-02  -1.0909473592563829e-01  -1.3378441287862128e-01  -1.3953540584546206e-01  -1.1652177985831869e-01  -7.0300874720905016e-02  -2.6140910416627614e-02  -1.4561339405087554e-04  1.7216864221712643e-02  2.7246352185866230e-02  2.0902415803848030e-02  1.1522797484606887e-02  4.5443142337176050e-03  -4.9277059228412921e-05  8.4269404000286190e-05  -1.5562753250895883e-02  -1.7243887454621611e-02  -5.6730708850345757e-03  3.0877476299937122e-03  9.2367836865493470e-03  3.6112171980729121e-02  9.2671999941172867e-02  1.4996805161373972e-01  1.8053030530455544e-01  1.8019752498331168e-01  1.5908192452681144e-01  1.2948305458349435e-01  9.8603942350541054e-02  6.8825684508694293e-02  4.0017079768493953e-02  1.1333522190817994e-02  -1.8036701556095269e-02  -4.9008874030633517e-02  -8.3490425944487134e-02  -1.2233048244746048e-01  -1.6405734346904841e-01  -2.0032640249656408e-01  -2.1337607908915032e-01  -1.8408862060548040e-01  -1.1429483679271037e-01  -4.1878447649425991e-02  -2.5473482180548451e-03  1.6074436611930230e-02  2.5901857262513737e-02  1.9119101223383707e-02  1.1321960923097476e-02  6.1198019575587671e-04  -1.7384368913200303e-03  -2.9737615799439128e-02  -1.9020704194586291e-02  4.0111174567276859e-03  1.8503116159124849e-02  5.9979996937073433e-02  1.3819341923251066e-01  2.0824442765802209e-01  2.3664127447703193e-01  2.2583179880459667e-01  1.9522582239129996e-01  1.6022336857217526e-01  1.2674749189701226e-01  9.5370783065398326e-02  6.5506742280069238e-02  3.6617479213136274e-02  8.1939544629998987e-03  -2.0566574949308612e-02  -5.0472082410453617e-02  -8.1603919938464886e-02  -1.1498317329451049e-01  -1.5274319107987314e-01  -1.9740919939835677e-01  -2.4453158913037296e-01  -2.7202609675189604e-01  -2.4596450817354884e-01  -1.5623077930412513e-01  -5.2063069466193490e-02  1.9318985852506180e-03  1.7130899317551997e-02  2.3230270635241107e-02  1.5769779117612973e-02  1.7361641478620177e-03  -7.6202015692888592e-03  -4.3275693628033740e-02  -8.1807400220396849e-03  2.3260655386126653e-02  7.3221104124131825e-02  1.6765203554015434e-01  2.5142165833338853e-01  2.8040423360796263e-01  2.6206914775526002e-01  2.2531195492744410e-01  1.8826503492370303e-01  1.5508417054949586e-01  1.2460833875049415e-01  9.5460892434662464e-02  6.6648316815156039e-02  3.7463519565144605e-02  7.4859267476345102e-03  -2.3285389468295260e-02  -5.4618679931065964e-02  -8.6478931697095557e-02  -1.1806290292659859e-01  -1.4864588315243171e-01  -1.8016559354409298e-01  -2.2027761397732806e-01  -2.7365828113005070e-01  -3.1699568058382066e-01  -2.9660885856480174e-01  -1.8580436057104674e-01  -5.0308965880526600e-02  1.1175912011450111e-02  1.9372475565695872e-02  2.0577968756404559e-02  1.3886601349162369e-03  -1.8833405968202946e-02  -4.5303536100427186e-02  1.3042158084410116e-02  7.1768320244381123e-02  1.7558008763200431e-01  2.7767635687755526e-01  3.1569118496507531e-01  2.9507344578421918e-01  2.5495786239628321e-01  2.1796270925368183e-01  1.8668498592006980e-01  1.5799013830030362e-01  1.2934482680219939e-01  9.9652999174439733e-02  6.9033114384096136e-02  3.8061407019312488e-02  7.0665886426314875e-03  -2.4128674861690170e-02  -5.6035397772112493e-02  -8.8926471946070992e-02  -1.2287920184973242e-01  -1.5672551520563846e-01  -1.8713245563014128e-01  -2.1262760269274464e-01  -2.4440829446491780e-01  -2.9974168408221746e-01  -3.5531356477244019e-01  -3.3198499915002799e-01  -1.8952069025546223e-01  -2.8687339140089523e-02  2.1048094262298516e-02  2.0735875025086420e-02  2.9239522791423204e-03  -2.7765842071600377e-02  -3.3610493194491303e-02  5.3055975866364312e-02  1.5921478220423577e-01  2.8231686894685110e-01  3.4270419676827091e-01  3.2799988787044804e-01  2.8612497834653067e-01  2.4926632981103022e-01  2.1969192651744418e-01  1.9199878360188782e-01  1.6257255955842342e-01  1.3115721233934527e-01  9.9352165833888603e-02  6.8162172631085718e-02  3.7444066369613303e-02  6.6453146390053905e-03  -2.4559866329312525e-02  -5.6122454768353681e-02  -8.8057527325482915e-02  -1.2067490766710136e-01  -1.5498699959341095e-01  -1.9138716419722834e-01  -2.2489378101998894e-01  -2.4775277055395031e-01  -2.7258447402129393e-01  -3.3088477511739378e-01  -3.9281455770257889e-01  -3.4524741278330007e-01  -1.5445715470562110e-01  9.6649095389640116e-03  2.1963848947859476e-02  5.1625604475665056e-03  -2.9899795155915981e-02  -5.1437772763609875e-03  1.2126545917587433e-01  2.5786526630688356e-01  3.5486900390539222e-01  3.6071126027684930e-01  3.1940996975212416e-01  2.8112775582713295e-01  2.5242110021375075e-01  2.2527001728500878e-01  1.9498115469531729e-01  1.6242992426218156e-01  1.3059763749649997e-01  9.9951361795225929e-02  6.9398913511299926e-02  3.8352335124165873e-02  6.8754806253587290e-03  -2.4884190010590015e-02  -5.6991078977759492e-02  -8.9377138109295026e-02  -1.2162507964533650e-01  -1.5330868886172525e-01  -1.8603302875750385e-01  -2.2335491175886119e-01  -2.6021341541870863e-01  -2.8147745104938687e-01  -3.0348392025052323e-01  -3.7130679931899008e-01  -4.2678322966993149e-01  -3.1823148934075696e-01  -7.3893141508976218e-02  3.6845229186001562e-02  -2.6292638135511238e-03  -2.4495918623382913e-02  4.5752171711367327e-02  2.0451106289893239e-01  3.3792794861446790e-01  3.8713059963097274e-01  3.5597257741860855e-01  3.1349317317535424e-01  2.8431052458895012e-01  2.5789476421442459e-01  2.2754129070730500e-01  1.9448722079464789e-01  1.6298554449107591e-01  1.3281203675464290e-01  1.0200829012672681e-01  7.0552515621474479e-02  3.8967422901893756e-02  7.3283174912937548e-03  -2.4524363482621742e-02  -5.6672760216437468e-02  -8.9264070751836108e-02  -1.2249054142953629e-01  -1.5580282576436752e-01  -1.8730875633682270e-01  -2.1827395652414106e-01  -2.5607596738299626e-01  -2.9463738658602734e-01  -3.1183041129945216e-01  -3.3903748953652041e-01  -4.2329168046820509e-01  -4.3753971185483498e-01  -2.2078151064892407e-01  2.2641914936256207e-02  6.9240310311168042e-03  -9.0897133522961412e-03  1.1352468537041385e-01  2.8317308785478296e-01  3.8933652448972744e-01  3.9419130848164435e-01  3.4928792095244082e-01  3.1522511862019914e-01  2.9004510820551810e-01  2.6058865824972316e-01  2.2742305971050630e-01  1.9575910608391181e-01  1.6579802726651857e-01  1.3460739308735503e-01  1.0275861294116442e-01  7.1182483702418572e-02  3.9638071919541891e-02  7.9212153489629823e-03  -2.4036847432106836e-02  -5.6244884748358974e-02  -8.8622788416513484e-02  -1.2123764985413596e-01  -1.5487495773756227e-01  -1.8949954077778566e-01  -2.2134159796969907e-01  -2.5147153019545565e-01  -2.9145249033373283e-01  -3.2813472272062189e-01  -3.3887756824395993e-01  -3.8825010871093679e-01  -4.7757262744120649e-01  -3.7313998965700107e-01  -4.9647392745601503e-02  3.6978342750851344e-02  1.3648834721338682e-02  1.8635626034902356e-01  3.4607501834524540e-01  4.1777232226209154e-01  3.9252386105724218e-01  3.4818770089677636e-01  3.2092259441971022e-01  2.9417736670949773e-01  2.6126819226483294e-01  2.2879847066222520e-01  1.9874033027928051e-01  1.6755048431656486e-01  1.3540184805855179e-01  1.0393784431842548e-01  7.2501120855121948e-02  4.0795437881996535e-02  8.8725537888045304e-03  -2.3274182761018680e-02  -5.5663157247392500e-02  -8.8387472695625607e-02  -1.2119804199225007e-01  -1.5373015314898777e-01  -1.8752867219216418e-01  -2.2332056271014711e-01  -2.5487220654650145e-01  -2.8597074808321959e-01  -3.3017307812122187e-01  -3.5702563935796688e-01  -3.7057541344551637e-01  -4.6198426695917100e-01  -4.8140737840271258e-01  -1.6595629267892634e-01  6.0722885032179937e-02  3.7255477465021877e-02  2.5367280862643748e-01  3.9162334217598277e-01  4.3311483045588323e-01  3.9107051561899525e-01  3.5199426741838780e-01  3.2683494120672896e-01  2.9647541623986989e-01  2.6255255525482563e-01  2.3170070575729731e-01  2.0092684132040545e-01  1.6858045078763301e-01  1.3695609421117663e-01  1.0560568807054915e-01  7.3809185693076221e-02  4.1928537970652380e-02  9.9381796173243307e-03  -2.2219514003278241e-02  -5.4611419325450827e-02  -8.7283372723276687e-02  -1.2054513343847340e-01  -1.5405213141705401e-01  -1.8670434937336230e-01  -2.2121548373840730e-01  -2.5787242181308695e-01  -2.8793940087315040e-01  -3.2445766220919608e-01  -3.6911299193081692e-01  -3.7914169575100909e-01  -4.3247692513110075e-01  -5.3262019419227224e-01  -3.0096714002520486e-01  7.1615473573271471e-02  5.5511068616997193e-02  3.0924307400739559e-01  4.2298359405683372e-01  4.4250045015669420e-01  3.9232173196807124e-01  3.5791573875210925e-01  3.3158071972427433e-01  2.9833428353506813e-01  2.6500555482822574e-01  2.3445319423502245e-01  2.0239168656933043e-01  1.7016062808057836e-01  1.3880726599137300e-01  1.0698480362812784e-01  7.5068041941021887e-02  4.3227352418901285e-02  1.1229088419857430e-02  -2.0964839445161563e-02  -5.3421381203201668e-02  -8.6121820249665151e-02  -1.1901388177663870e-01  -1.5282807347053654e-01  -1.8701524278814796e-01  -2.1999595272245093e-01  -2.5652395305737491e-01  -2.9246128093665036e-01  -3.2241364612785595e-01  -3.6958320532206890e-01  -3.9778454357732085e-01  -4.1635024591824288e-01  -5.4155389345518889e-01  -4.2510972114589707e-01  6.2357877148329244e-02  6.5071952055468563e-02  3.5037785524005982e-01  4.4389183790805287e-01  4.4942323990104294e-01  3.9565790551208430e-01  3.6388519035640321e-01  3.3527948241192634e-01  3.0050869478077663e-01  2.6779648856471799e-01  2.3661539499406939e-01  2.0392871985086203e-01  1.7201463583196697e-01  1.4037152526989038e-01  1.0833980309966577e-01  7.6568331573216297e-02  4.4734050746105335e-02  1.2720353564188243e-02  -1.9448678013991985e-02  -5.1847406517695788e-02  -8.4634731384159986e-02  -1.1775911383750413e-01  -1.5098317232506611e-01  -1.8561437644735462e-01  -2.2011114201446766e-01  -2.5426526790034443e-01  -2.9361211945858423e-01  -3.2567873276921727e-01  -3.6509903976515456e-01  -4.1216425584983557e-01  -4.1817237690516629e-01  -5.2876732745520072e-01  -5.2378662083343264e-01  3.4589751686934761e-02  6.5059284509962928e-02  3.7642123627242269e-01  4.5710282549248205e-01  4.5487848864800778e-01  3.9985855270825815e-01  3.6885081265797526e-01  3.3834924982805042e-01  3.0285844073065010e-01  2.7032144396694735e-01  2.3843317037118950e-01  2.0558131897243129e-01  1.7370099343395223e-01  1.4179262766388867e-01  1.0982464635815153e-01  7.8124239059319631e-02  4.6267735037690834e-02  1.4355177210672377e-02  -1.7692266533175047e-02  -5.0011684877091671e-02  -8.2587183819543331e-02  -1.1575885244073521e-01  -1.4934341512276678e-01  -1.8320981777003831e-01  -2.1897890341513859e-01  -2.5326849905020810e-01  -2.9125703708816608e-01  -3.2970576277045555e-01  -3.6207509009814415e-01  -4.1752268874647452e-01  -4.3102547174977740e-01  -5.0935570633476945e-01  -5.9488664330688712e-01  -5.1431550894492657e-03  5.7155909359878153e-02  3.8686432309013247e-01  4.6410969010288744e-01  4.5901832590367209e-01  4.0384900342482327e-01  3.7252121882870787e-01  3.4089655305600064e-01  3.0507130346436567e-01  2.7237417338515407e-01  2.4003551582704116e-01  2.0711398648659296e-01  1.7515134447524108e-01  1.4315334001754476e-01  1.1128975145371883e-01  7.9630904761554891e-02  4.7903116228404923e-02  1.6185263688096991e-02  -1.5698320156700696e-02  -4.7815066990789343e-02  -8.0312967644086491e-02  -1.1312333233977005e-01  -1.4681067479350340e-01  -1.8078829717877817e-01  -2.1601169027763181e-01  -2.5227692727339468e-01  -2.8788660697536977e-01  -3.3060410062737661e-01  -3.6220576716610764e-01  -4.1530095407076217e-01  -4.4667513375807827e-01  -4.9059726465126507e-01  -6.4248068716972262e-01  -5.0315955603259528e-02  4.2084177202856704e-02  3.8210431441690423e-01  4.6531000700721803e-01  4.6179521870358264e-01  4.0716644099230831e-01  3.7477206081290904e-01  3.4291967061917539e-01  3.0690719245929787e-01  2.7390564188524419e-01  2.4137156960929051e-01  2.0839258373904573e-01  1.7635187673790223e-01  1.4439437961455490e-01  1.1262945329897819e-01  8.1111221989361659e-02  4.9614383647672219e-02  1.8135991679166439e-02  -1.3460216051138582e-02  -4.5284820013167144e-02  -7.7451214379443634e-02  -1.1016234973603188e-01  -1.4333883756012802e-01  -1.7766520643163311e-01  -2.1219966970087198e-01  -2.4946895544807107e-01  -2.8476368965074011e-01  -3.2754912787302010e-01  -3.6363549176060489e-01  -4.0875401965881197e-01  -4.5935824403992959e-01  -4.7507564433662436e-01  -6.7153770633008303e-01  -9.6437805689767397e-02  2.0631447527758789e-02  3.6205107000601500e-01  4.6135308571179817e-01  4.6220173107941231e-01  4.1049011258998491e-01  3.7522878127799913e-01  3.4453917043879800e-01  3.0821985001207192e-01  2.7492575011050241e-01  2.4232786780709853e-01  2.0937404982110661e-01  1.7722325776960102e-01  1.4542972485357830e-01  1.1380242485103646e-01  8.2505124140130615e-02  5.1329917639106909e-02  2.0192396994555811e-02  -1.1012670678290978e-02  -4.2415647644266655e-02  -7.4126370521269205e-02  -1.0644725771636868e-01  -1.3927970572364223e-01  -1.7326562208651194e-01  -2.0776059740456895e-01  -2.4461163965218907e-01  -2.8102292373464305e-01  -3.2184715768231470e-01  -3.6339818941661123e-01  -4.0065135781214517e-01  -4.6610243260056544e-01  -4.6280465230185835e-01  -6.8633095438047009e-01  -1.4086571902425912e-01  -2.5826154210142182e-03  3.2502802321808677e-01  4.5191599239856056e-01  4.5952750894320959e-01  4.1408476732440747e-01  3.7443771951335364e-01  3.4524550403869553e-01  3.0930054714090388e-01  2.7528362115834537e-01  2.4286692186879069e-01  2.0996924904624448e-01  1.7775188063098751e-01  1.4613071992770621e-01  1.1476639407101379e-01  8.3739713644031960e-02  5.2984737033177499e-02  2.2327640358711598e-02  -8.3473240885940606e-03  -3.9141918525024438e-02  -7.0374559447016483e-02  -1.0201883873763461e-01  -1.3437471595686035e-01  -1.6779952871698101e-01  -2.0202049766788585e-01  -2.3838446973996291e-01  -2.7515391439719600e-01  -3.1497280596611721e-01  -3.5923319057991826e-01  -3.9245039489597028e-01  -4.6586216064131170e-01  -4.5279097483406228e-01  -6.9024343492141693e-01  -1.8180180698190046e-01  -2.1328986016918926e-02  2.7023127187848844e-01  4.3431769290081923e-01  4.5396851949014277e-01  4.1727618279118911e-01  3.7388414916833512e-01  3.4429790154318862e-01  3.1039118128957188e-01  2.7511876684314085e-01  2.4277682129749081e-01  2.1015669636482798e-01  1.7784656788133399e-01  1.4640223409569081e-01  1.1540657379727542e-01  8.4774041252987237e-02  5.4503797073412324e-02  2.4460940713088072e-02  -5.5270863433858697e-03  -3.5630133324311739e-02  -6.6077030143377652e-02  -9.6851293093057025e-02  -1.2855745077791000e-01  -1.6124375811042507e-01  -1.9472756184303361e-01  -2.3079864891542207e-01  -2.6676495829158470e-01  -3.0687384836899301e-01  -3.5087952815349432e-01  -3.8360293413156571e-01  -4.5941601233407381e-01  -4.4308128811145825e-01  -6.8631510278536334e-01  -2.1760442129247695e-01  -3.1449482017007764e-02  2.0112353683785078e-01  4.0294739410898917e-01  4.4547727767159079e-01  4.1890043889741185e-01  3.7490208619895793e-01  3.4186929789058329e-01  3.1073960078575236e-01  2.7510093124160273e-01  2.4178246121373440e-01  2.0977432469171184e-01  1.7753605666188629e-01  1.4611528896537124e-01  1.1553928267231306e-01  8.5476724760735548e-02  5.5843658771642490e-02  2.6534556467502118e-02  -2.6028638797232126e-03  -3.1789077545577450e-02  -6.1169870190580393e-02  -9.0997329684922815e-02  -1.2190263591097592e-01  -1.5326241170855309e-01  -1.8607092866551328e-01  -2.2139952953689465e-01  -2.5607099519336335e-01  -2.9676370511485495e-01  -3.3911820100582013e-01  -3.7229717484184588e-01  -4.4875092446673587e-01  -4.3087329203644853e-01  -6.7736821232438282e-01  -2.4700204944816145e-01  -3.1082023635660483e-02  1.2565724548951104e-01  3.5161792849300605e-01  4.3133023744785792e-01  4.1844564767753151e-01  3.7743778995918409e-01  3.3970314711355226e-01  3.0912274686639901e-01  2.7530303945997114e-01  2.4043613198029529e-01  2.0820327274257433e-01  1.7665104186833100e-01  1.4538022409252399e-01  1.1506655043282833e-01  8.5633177780170253e-02  5.6820225121685386e-02  2.8456177492454014e-02  3.6429015497332733e-04  -2.7655505663421818e-02  -5.5857565334334371e-02  -8.4683284386408084e-02  -1.1396611639551125e-01  -1.4393047585158070e-01  -1.7620553992913496e-01  -2.0968767878164815e-01  -2.4316536770778380e-01  -2.8440511499563242e-01  -3.2381275692136302e-01  -3.5766386553004742e-01  -4.3501510807322702e-01  -4.1381777664433506e-01  -6.6528995874973895e-01  -2.6986349478386479e-01  -2.3182487572121616e-02  5.7469157056556558e-02  2.7679020303427160e-01  4.0387774586002401e-01  4.1480625224044798e-01  3.8021193606680331e-01  3.3968177925316073e-01  3.0593575536298934e-01  2.7415130205901506e-01  2.3954076965301255e-01  2.0577879039411937e-01  1.7432310672979895e-01  1.4380960990012126e-01  1.1402187371938059e-01  8.5221733400885138e-02  5.7315853893002887e-02  3.0066122499644844e-02  3.2371117979206974e-03  -2.3465640742115237e-02  -5.0264597467251704e-02  -7.7272851501229312e-02  -1.0477376056005991e-01  -1.3397298096560850e-01  -1.6454569388448279e-01  -1.9519482620911313e-01  -2.2870333590302039e-01  -2.6924456378686651e-01  -3.0436025165544328e-01  -3.3981273758955249e-01  -4.1816936131130572e-01  -3.9042182655346019e-01  -6.5039121261420851e-01  -2.8810843678477677e-01  -1.0772262274806382e-02  7.8783124511940961e-03  1.8493332967557538e-01  3.5217951860050378e-01  4.0352054330850395e-01  3.8183701966373595e-01  3.4164137515776405e-01  3.0341504865238600e-01  2.7031207901020965e-01  2.3749400254398662e-01  2.0350996812762354e-01  1.7100776104937057e-01  1.4069869764208193e-01  1.1181714377883439e-01  8.4032807333877246e-02  5.7260254457294053e-02  3.1335021322082317e-02  5.9878757583456043e-03  -1.8998165397824271e-02  -4.3885406517733275e-02  -6.9260935091551554e-02  -9.5486752736636413e-0