<?xml version="1.0"?>
<VTKFile type="UnstructuredGrid"  version="0.1"  >
<UnstructuredGrid>
<Piece  NumberOfPoints="16641" NumberOfCells="16384">
<Points>
<DataArray  type="Float64"  NumberOfComponents="3"  format="ascii">0 0 0  0.0078125 0 0  0.015625 0 0  0.0234375 0 0  0.03125 0 0  0.0390625 0 0  0.046875 0 0  0.0546875 0 0  0.0625 0 0  0.0703125 0 0  0.078125 0 0  0.0859375 0 0  0.09375 0 0  0.1015625 0 0  0.109375 0 0  0.1171875 0 0  0.125 0 0  0.1328125 0 0  0.140625 0 0  0.1484375 0 0  0.15625 0 0  0.1640625 0 0  0.171875 0 0  0.1796875 0 0  0.1875 0 0  0.1953125 0 0  0.203125 0 0  0.2109375 0 0  0.21875 0 0  0.2265625 0 0  0.234375 0 0  0.2421875 0 0  0.25 0 0  0.2578125 0 0  0.265625 0 0  0.2734375 0 0  0.28125 0 0  0.2890625 0 0  0.296875 0 0  0.3046875 0 0  0.3125 0 0  0.3203125 0 0  0.328125 0 0  0.3359375 0 0  0.34375 0 0  0.3515625 0 0  0.359375 0 0  0.3671875 0 0  0.375 0 0  0.3828125 0 0  0.390625 0 0  0.3984375 0 0  0.40625 0 0  0.4140625 0 0  0.421875 0 0  0.4296875 0 0  0.4375 0 0  0.4453125 0 0  0.453125 0 0  0.4609375 0 0  0.46875 0 0  0.4765625 0 0  0.484375 0 0  0.4921875 0 0  0.5 0 0  0.5078125 0 0  0.515625 0 0  0.5234375 0 0  0.53125 0 0  0.5390625 0 0  0.546875 0 0  0.5546875 0 0  0.5625 0 0  0.5703125 0 0  0.578125 0 0  0.5859375 0 0  0.59375 0 0  0.6015625 0 0  0.609375 0 0  0.6171875 0 0  0.625 0 0  0.6328125 0 0  0.640625 0 0  0.6484375 0 0  0.65625 0 0  0.6640625 0 0  0.671875 0 0  0.6796875 0 0  0.6875 0 0  0.6953125 0 0  0.703125 0 0  0.7109375 0 0  0.71875 0 0  0.7265625 0 0  0.734375 0 0  0.7421875 0 0  0.75 0 0  0.7578125 0 0  0.765625 0 0  0.7734375 0 0  0.78125 0 0  0.7890625 0 0  0.796875 0 0  0.8046875 0 0  0.8125 0 0  0.8203125 0 0  0.828125 0 0  0.8359375 0 0  0.84375 0 0  0.8515625 0 0  0.859375 0 0  0.8671875 0 0  0.875 0 0  0.8828125 0 0  0.890625 0 0  0.8984375 0 0  0.90625 0 0  0.9140625 0 0  0.921875 0 0  0.9296875 0 0  0.9375 0 0  0.9453125 0 0  0.953125 0 0  0.9609375 0 0  0.96875 0 0  0.9765625 0 0  0.984375 0 0  0.9921875 0 0  1 0 0  0 0.0078125 0  0.0078125 0.0078125 0  0.015625 0.0078125 0  0.0234375 0.0078125 0  0.03125 0.0078125 0  0.0390625 0.0078125 0  0.046875 0.0078125 0  0.0546875 0.0078125 0  0.0625 0.0078125 0  0.0703125 0.0078125 0  0.078125 0.0078125 0  0.0859375 0.0078125 0  0.09375 0.0078125 0  0.1015625 0.0078125 0  0.109375 0.0078125 0  0.1171875 0.0078125 0  0.125 0.0078125 0  0.1328125 0.0078125 0  0.140625 0.0078125 0  0.1484375 0.0078125 0  0.15625 0.0078125 0  0.1640625 0.0078125 0  0.171875 0.0078125 0  0.1796875 0.0078125 0  0.1875 0.0078125 0  0.1953125 0.0078125 0  0.203125 0.0078125 0  0.2109375 0.0078125 0  0.21875 0.0078125 0  0.2265625 0.0078125 0  0.234375 0.0078125 0  0.2421875 0.0078125 0  0.25 0.0078125 0  0.2578125 0.0078125 0  0.265625 0.0078125 0  0.2734375 0.0078125 0  0.28125 0.0078125 0  0.2890625 0.0078125 0  0.296875 0.0078125 0  0.3046875 0.0078125 0  0.3125 0.0078125 0  0.3203125 0.0078125 0  0.328125 0.0078125 0  0.3359375 0.0078125 0  0.34375 0.0078125 0  0.3515625 0.0078125 0  0.359375 0.0078125 0  0.3671875 0.0078125 0  0.375 0.0078125 0  0.3828125 0.0078125 0  0.390625 0.0078125 0  0.3984375 0.0078125 0  0.40625 0.0078125 0  0.4140625 0.0078125 0  0.421875 0.0078125 0  0.4296875 0.0078125 0  0.4375 0.0078125 0  0.4453125 0.0078125 0  0.453125 0.0078125 0  0.4609375 0.0078125 0  0.46875 0.0078125 0  0.4765625 0.0078125 0  0.484375 0.0078125 0  0.4921875 0.0078125 0  0.5 0.0078125 0  0.5078125 0.0078125 0  0.515625 0.0078125 0  0.5234375 0.0078125 0  0.53125 0.0078125 0  0.5390625 0.0078125 0  0.546875 0.0078125 0  0.5546875 0.0078125 0  0.5625 0.0078125 0  0.5703125 0.0078125 0  0.578125 0.0078125 0  0.5859375 0.0078125 0  0.59375 0.0078125 0  0.6015625 0.0078125 0  0.609375 0.0078125 0  0.6171875 0.0078125 0  0.625 0.0078125 0  0.6328125 0.0078125 0  0.640625 0.0078125 0  0.6484375 0.0078125 0  0.65625 0.0078125 0  0.6640625 0.0078125 0  0.671875 0.0078125 0  0.6796875 0.0078125 0  0.6875 0.0078125 0  0.6953125 0.0078125 0  0.703125 0.0078125 0  0.7109375 0.0078125 0  0.71875 0.0078125 0  0.7265625 0.0078125 0  0.734375 0.0078125 0  0.7421875 0.0078125 0  0.75 0.0078125 0  0.7578125 0.0078125 0  0.765625 0.0078125 0  0.7734375 0.0078125 0  0.78125 0.0078125 0  0.7890625 0.0078125 0  0.796875 0.0078125 0  0.8046875 0.0078125 0  0.8125 0.0078125 0  0.8203125 0.0078125 0  0.828125 0.0078125 0  0.8359375 0.0078125 0  0.84375 0.0078125 0  0.8515625 0.0078125 0  0.859375 0.0078125 0  0.8671875 0.0078125 0  0.875 0.0078125 0  0.8828125 0.0078125 0  0.890625 0.0078125 0  0.8984375 0.0078125 0  0.90625 0.0078125 0  0.9140625 0.0078125 0  0.921875 0.0078125 0  0.9296875 0.0078125 0  0.9375 0.0078125 0  0.9453125 0.0078125 0  0.953125 0.0078125 0  0.9609375 0.0078125 0  0.96875 0.0078125 0  0.9765625 0.0078125 0  0.984375 0.0078125 0  0.9921875 0.0078125 0  1 0.0078125 0  0 0.015625 0  0.0078125 0.015625 0  0.015625 0.015625 0  0.0234375 0.015625 0  0.03125 0.015625 0  0.0390625 0.015625 0  0.046875 0.015625 0  0.0546875 0.015625 0  0.0625 0.015625 0  0.0703125 0.015625 0  0.078125 0.015625 0  0.0859375 0.015625 0  0.09375 0.015625 0  0.1015625 0.015625 0  0.109375 0.015625 0  0.1171875 0.015625 0  0.125 0.015625 0  0.1328125 0.015625 0  0.140625 0.015625 0  0.1484375 0.015625 0  0.15625 0.015625 0  0.1640625 0.015625 0  0.171875 0.015625 0  0.1796875 0.015625 0  0.1875 0.015625 0  0.1953125 0.015625 0  0.203125 0.015625 0  0.2109375 0.015625 0  0.21875 0.015625 0  0.2265625 0.015625 0  0.234375 0.015625 0  0.2421875 0.015625 0  0.25 0.015625 0  0.2578125 0.015625 0  0.265625 0.015625 0  0.2734375 0.015625 0  0.28125 0.015625 0  0.2890625 0.015625 0  0.296875 0.015625 0  0.3046875 0.015625 0  0.3125 0.015625 0  0.3203125 0.015625 0  0.328125 0.015625 0  0.3359375 0.015625 0  0.34375 0.015625 0  0.3515625 0.015625 0  0.359375 0.015625 0  0.3671875 0.015625 0  0.375 0.015625 0  0.3828125 0.015625 0  0.390625 0.015625 0  0.3984375 0.015625 0  0.40625 0.015625 0  0.4140625 0.015625 0  0.421875 0.015625 0  0.4296875 0.015625 0  0.4375 0.015625 0  0.4453125 0.015625 0  0.453125 0.015625 0  0.4609375 0.015625 0  0.46875 0.015625 0  0.4765625 0.015625 0  0.484375 0.015625 0  0.4921875 0.015625 0  0.5 0.015625 0  0.5078125 0.015625 0  0.515625 0.015625 0  0.5234375 0.015625 0  0.53125 0.015625 0  0.5390625 0.015625 0  0.546875 0.015625 0  0.5546875 0.015625 0  0.5625 0.015625 0  0.5703125 0.015625 0  0.578125 0.015625 0  0.5859375 0.015625 0  0.59375 0.015625 0  0.6015625 0.015625 0  0.609375 0.015625 0  0.6171875 0.015625 0  0.625 0.015625 0  0.6328125 0.015625 0  0.640625 0.015625 0  0.6484375 0.015625 0  0.65625 0.015625 0  0.6640625 0.015625 0  0.671875 0.015625 0  0.6796875 0.015625 0  0.6875 0.015625 0  0.6953125 0.015625 0  0.703125 0.015625 0  0.7109375 0.015625 0  0.71875 0.015625 0  0.7265625 0.015625 0  0.734375 0.015625 0  0.7421875 0.015625 0  0.75 0.015625 0  0.7578125 0.015625 0  0.765625 0.015625 0  0.7734375 0.015625 0  0.78125 0.015625 0  0.7890625 0.015625 0  0.796875 0.015625 0  0.8046875 0.015625 0  0.8125 0.015625 0  0.8203125 0.015625 0  0.828125 0.015625 0  0.8359375 0.015625 0  0.84375 0.015625 0  0.8515625 0.015625 0  0.859375 0.015625 0  0.8671875 0.015625 0  0.875 0.015625 0  0.8828125 0.015625 0  0.890625 0.015625 0  0.8984375 0.015625 0  0.90625 0.015625 0  0.9140625 0.015625 0  0.921875 0.015625 0  0.9296875 0.015625 0  0.9375 0.015625 0  0.9453125 0.015625 0  0.953125 0.015625 0  0.9609375 0.015625 0  0.96875 0.015625 0  0.9765625 0.015625 0  0.984375 0.015625 0  0.9921875 0.015625 0  1 0.015625 0  0 0.0234375 0  0.0078125 0.0234375 0  0.015625 0.0234375 0  0.0234375 0.0234375 0  0.03125 0.0234375 0  0.0390625 0.0234375 0  0.046875 0.0234375 0  0.0546875 0.0234375 0  0.0625 0.0234375 0  0.0703125 0.0234375 0  0.078125 0.0234375 0  0.0859375 0.0234375 0  0.09375 0.0234375 0  0.1015625 0.0234375 0  0.109375 0.0234375 0  0.1171875 0.0234375 0  0.125 0.0234375 0  0.1328125 0.0234375 0  0.140625 0.0234375 0  0.1484375 0.0234375 0  0.15625 0.0234375 0  0.1640625 0.0234375 0  0.171875 0.0234375 0  0.1796875 0.0234375 0  0.1875 0.0234375 0  0.1953125 0.0234375 0  0.203125 0.0234375 0  0.2109375 0.0234375 0  0.21875 0.0234375 0  0.2265625 0.0234375 0  0.234375 0.0234375 0  0.2421875 0.0234375 0  0.25 0.0234375 0  0.2578125 0.0234375 0  0.265625 0.0234375 0  0.2734375 0.0234375 0  0.28125 0.0234375 0  0.2890625 0.0234375 0  0.296875 0.0234375 0  0.3046875 0.0234375 0  0.3125 0.0234375 0  0.3203125 0.0234375 0  0.328125 0.0234375 0  0.3359375 0.0234375 0  0.34375 0.0234375 0  0.3515625 0.0234375 0  0.359375 0.0234375 0  0.3671875 0.0234375 0  0.375 0.0234375 0  0.3828125 0.0234375 0  0.390625 0.0234375 0  0.3984375 0.0234375 0  0.40625 0.0234375 0  0.4140625 0.0234375 0  0.421875 0.0234375 0  0.4296875 0.0234375 0  0.4375 0.0234375 0  0.4453125 0.0234375 0  0.453125 0.0234375 0  0.4609375 0.0234375 0  0.46875 0.0234375 0  0.4765625 0.0234375 0  0.484375 0.0234375 0  0.4921875 0.0234375 0  0.5 0.0234375 0  0.5078125 0.0234375 0  0.515625 0.0234375 0  0.5234375 0.0234375 0  0.53125 0.0234375 0  0.5390625 0.0234375 0  0.546875 0.0234375 0  0.5546875 0.0234375 0  0.5625 0.0234375 0  0.5703125 0.0234375 0  0.578125 0.0234375 0  0.5859375 0.0234375 0  0.59375 0.0234375 0  0.6015625 0.0234375 0  0.609375 0.0234375 0  0.6171875 0.0234375 0  0.625 0.0234375 0  0.6328125 0.0234375 0  0.640625 0.0234375 0  0.6484375 0.0234375 0  0.65625 0.0234375 0  0.6640625 0.0234375 0  0.671875 0.0234375 0  0.6796875 0.0234375 0  0.6875 0.0234375 0  0.6953125 0.0234375 0  0.703125 0.0234375 0  0.7109375 0.0234375 0  0.71875 0.0234375 0  0.7265625 0.0234375 0  0.734375 0.0234375 0  0.7421875 0.0234375 0  0.75 0.0234375 0  0.7578125 0.0234375 0  0.765625 0.0234375 0  0.7734375 0.0234375 0  0.78125 0.0234375 0  0.7890625 0.0234375 0  0.796875 0.0234375 0  0.8046875 0.0234375 0  0.8125 0.0234375 0  0.8203125 0.0234375 0  0.828125 0.0234375 0  0.8359375 0.0234375 0  0.84375 0.0234375 0  0.8515625 0.0234375 0  0.859375 0.0234375 0  0.8671
[...]
<PointData  Scalars="u_sol"> 
<DataArray  type="Float64"  Name="u_sol"  format="ascii">1.9756757476357281e-06  -1.1988241112825531e-05  -2.2124353855658805e-05  -2.0905884452651041e-05  -1.2757017662209811e-05  1.1803100119123943e-07  1.5606073176134869e-05  3.2101764478437398e-05  4.8210426555353350e-05  6.2859666058218239e-05  7.5308277203814039e-05  8.5184490828068527e-05  9.2464461297977126e-05  9.7427315190339581e-05  1.0058187326164597e-04  1.0258658157552608e-04  1.0417038432571292e-04  1.0606382727454009e-04  1.0894261634430684e-04  1.1338455721517005e-04  1.1983938347574709e-04  1.2861208529635953e-04  1.3986123840954874e-04  1.5361388087399851e-04  1.6979654142381951e-04  1.8827848459501624e-04  2.0891934923577055e-04  2.3161104033089170e-04  2.5630438334659037e-04  2.8301488761399099e-04  3.1180768376126082e-04  3.4276714160678105e-04  3.7595973461596201e-04  4.1139847904570273e-04  4.4901431324108338e-04  4.8863574755583826e-04  5.2997495796931445e-04  5.7261729221114123e-04  6.1601190751741459e-04  6.5946300002431681e-04  7.0212273864674307e-04  7.4298792012818401e-04  7.8090245581642777e-04  8.1456741183427489e-04  8.4255972842225231e-04  8.6336015437437708e-04  8.7539034575535868e-04  8.7705849864049923e-04  8.6681220946558475e-04  8.4319678822727332e-04  8.0491670045624057e-04  7.5089758545069090e-04  6.8034620852767296e-04  5.9280583775806839e-04  4.8820477010610167e-04  3.6689637761691567e-04  2.2968940669542884e-04  7.7867832335792484e-05  -8.6800021106864272e-05  -2.6206313737685017e-04  -4.4520010074253636e-04  -6.3304224436396602e-04  -8.2200791148989965e-04  -1.0081485545401791e-03  -1.1872080461967404e-03  -1.3546964654154899e-03  -1.5059802797244477e-03  -1.6363904652114943e-03  -1.7413497184339492e-03  -1.8165189328379859e-03  -1.8579615290068761e-03  -1.8623224041062504e-03  -1.8270156090169399e-03  -1.7504121390155875e-03  -1.6320165598496992e-03  -1.4726186181959219e-03  -1.2744044138782841e-03  -1.0410113167910917e-03  -7.7751204001665997e-04  -4.9031682522693060e-04  -1.8698768332432787e-04  1.2403379907065820e-04  4.3377548288742347e-04  7.3314211857082156e-04  1.0133548797324457e-03  1.2663912204797364e-03  1.4853905407511392e-03  1.6649926068461225e-03  1.8015810097753355e-03  1.8934125084517294e-03  1.9406243098059538e-03  1.9451229100753858e-03  1.9103690749800810e-03  1.8410820817088248e-03  1.7428916263265255e-03  1.6219676191075590e-03  1.4846565816016538e-03  1.3371492749749136e-03  1.1851984948162172e-03  1.0338995495826479e-03  8.8753953667132079e-04  7.4951572010087245e-04  6.2231820062877115e-04  5.0756812711904198e-04  4.0609994660758603e-04  3.1807448577939805e-04  2.4310949401382017e-04  1.8041517153080116e-04  1.2892411448695755e-04  8.7407717492269209e-05  5.4573816473895872e-05  2.9143112552643064e-05  9.9038596529593537e-06  -4.2537137267390842e-06  -1.4321262112051411e-05  -2.1170306027341091e-05  -2.5561356900825233e-05  -2.8155881799620848e-05  -2.9529407851142129e-05  -3.0168998726461802e-05  -3.0465600144971324e-05  -3.0661655560815468e-05  -3.0813673142952733e-05  -3.0644824488362972e-05  -2.9537103693752815e-05  -2.6193127421097726e-05  -1.9210679653359269e-05  -6.8825053861316522e-06  1.5895677334704423e-06  -1.0037189176967523e-06  -3.7866780779998728e-07  9.5565514182410676e-05  3.3108392247473394e-04  6.9281225902915404e-04  1.1535813951680045e-03  1.6796220572689665e-03  2.2365696558120109e-03  2.7922212748967244e-03  3.3188827310942533e-03  3.7949749177314425e-03  4.2059661508986046e-03  4.5445686375318395e-03  4.8102579748846505e-03  5.0082435039500214e-03  5.1480577095436870e-03  5.2419433869657101e-03  5.3031998165895657e-03  5.3446236287384933e-03  5.3771529399480999e-03  5.4088022491790688e-03  5.4439565350440939e-03  5.4830690668522522e-03  5.5227705209873034e-03  5.5563455823651681e-03  5.5744751667221462e-03  5.5660945640145440e-03  5.5191991703924916e-03  5.4214520396999458e-03  5.2605088981844631e-03  5.0240586640327078e-03  4.6996538819209632e-03  4.2744512729725450e-03  3.7349861836205402e-03  3.0670718626720273e-03  2.2558642444866456e-03  1.2860872453575370e-03  1.4238694526152123e-04  -1.1902226280635225e-03  -2.7258518832902457e-03  -4.4771860271752085e-03  -6.4549080194769596e-03  -8.6671096851452575e-03  -1.1118711045555668e-02  -1.3810912669080570e-02  -1.6740708507697908e-02  -1.9900486161062093e-02  -2.3277738325957559e-02  -2.6854903395281026e-02  -3.0609345853747801e-02  -3.4513478669393388e-02  -3.8535021518810809e-02  -4.2637381103486804e-02  -4.6780133910815057e-02  -5.0919587974453714e-02  -5.5009399127103877e-02  -5.9001218215699529e-02  -6.2845349107380044e-02  -6.6491402373216102e-02  -6.9888935045751596e-02  -7.2988073086448169e-02  -7.5740118688116545e-02  -7.8098149350567594e-02  -8.0017618950584957e-02  -8.1456972701600988e-02  -8.2378288196184951e-02  -8.2747952216695841e-02  -8.2537379644830627e-02  -8.1723775287380562e-02  -8.0290932192882553e-02  -7.8230051577833956e-02  -7.5540560542536286e-02  -7.2230894045907906e-02  -6.8319198251595603e-02  -6.3833904391873558e-02  -5.8814116707715663e-02  -5.3309755508420160e-02  -4.7381397713197874e-02  -4.1099764375967789e-02  -3.4544816978965505e-02  -2.7804442604730223e-02  -2.0972731137353387e-02  -1.4147874642501189e-02  -7.4297480190081804e-03  -9.1725783276044208e-04  5.2944293438099196e-03  1.1116650285687370e-02  1.6469863060062338e-02  2.1285984523678751e-02  2.5510325967482071e-02  2.9103028541766565e-02  3.2039931144452499e-02  3.4312838384975598e-02  3.5929191677477365e-02  3.6911178761811991e-02  3.7294343415012081e-02  3.7125776659473655e-02  3.6461983386470227e-02  3.5366525403139837e-02  3.3907545161428507e-02  3.2155275149160611e-02  3.0179636641097633e-02  2.8048027506269391e-02  2.5823390371806695e-02  2.3562638053478555e-02  2.1315491904266660e-02  1.9123761370028101e-02  1.7021061938965208e-02  1.5032937577846043e-02  1.3177326818535102e-02  1.1465292272147879e-02  9.9019234563811100e-03  8.4873235438358043e-03  7.2176009513553220e-03  6.0858067927511573e-03  5.0827856463185345e-03  4.1979404505501309e-03  3.4199407743054945e-03  2.7374317452100202e-03  2.1397975457244636e-03  1.6180297693001229e-03  1.1656719730217164e-03  7.7976902842609832e-04  4.6154753509215042e-04  2.1638051628384495e-04  5.2309897626043912e-05  -2.5569488287054265e-05  -2.4174233248716310e-05  3.9668001301749175e-06  -1.2504751069493131e-05  6.2260171644078823e-05  3.1985090072575510e-04  7.8162496906525932e-04  1.4309509869422214e-03  2.2294848167564367e-03  3.1275740762955434e-03  4.0724429829754362e-03  5.0136179948580047e-03  5.9069348789509762e-03  6.7172804689381894e-03  7.4201708429324125e-03  8.0021879513228217e-03  8.4603826164086279e-03  8.8008168226705250e-03  9.0364748809068328e-03  9.1847917035648534e-03  9.2650427580154293e-03  9.2958186270875771e-03  9.2927803066694490e-03  9.2668614465485771e-03  9.2230482632714959e-03  9.1598183523010426e-03  9.0692498404556423e-03  8.9377243304167055e-03  8.7470561268957556e-03  8.4758116470681228e-03  8.1005629401000069e-03  7.5968619520079324e-03  6.9398203266666774e-03  6.1043039683942738e-03  5.0648620725547234e-03  3.7955721846407008e-03  2.2699817548931700e-03  4.6127393669484289e-04  -1.6572899903052184e-03  -4.1116661813925511e-03  -6.9261164527387436e-03  -1.0122156189709906e-02  -1.3717425248900168e-02  -1.7724538807348846e-02  -2.2149973442995269e-02  -2.6993046647178279e-02  -3.2245051085905183e-02  -3.7888603687633589e-02  -4.3897261732086766e-02  -5.0235443863193494e-02  -5.6858673855649945e-02  -6.3714142918989455e-02  -7.0741563405002567e-02  -7.7874267101709971e-02  -8.5040486368824775e-02  -9.2164747922733645e-02  -9.9169307666297821e-02  -1.0597556032666232e-01  -1.1250536843226655e-01  -1.1868226895701062e-01  -1.2443253208294473e-01  -1.2968606173652580e-01  -1.3437714168169712e-01  -1.3844504159642221e-01  -1.4183450579269863e-01  -1.4449615167342045e-01  -1.4638680649345320e-01  -1.4746981010479054e-01  -1.4771530804586580e-01  -1.4710055503500344e-01  -1.4561024225860761e-01  -1.4323685618135465e-01  -1.3998106886928843e-01  -1.3585215249399424e-01  -1.3086840339336944e-01  -1.2505755357566894e-01  -1.1845714051970360e-01  -1.1111479995739347e-01  -1.0308844131091252e-01  -9.4446261740835147e-02  -8.5266554301433720e-02  -7.5637267864089572e-02  -6.5655281749450831e-02  -5.5425367981242479e-02  -4.5058827982140767e-02  -3.4671807366128009e-02  -2.4383311898354739e-02  -1.4312967963801573e-02  -4.5785902890754853e-03  4.7063643582985282e-03  1.3435367195439836e-02  2.1511315731986815e-02  2.8848865504098958e-02  3.5376507627323507e-02  4.1038315698878725e-02  4.5795299516165268e-02  4.9626317358755619e-02  5.2528511447413731e-02  5.4517241648714639e-02  5.5625500965242075e-02  5.5902804645934480e-02  5.5413555454163502e-02  5.4234904389496186e-02  5.2454151002947473e-02  5.0165760819119477e-02  4.7468116475012936e-02  4.4460157577390469e-02  4.1238093773691357e-02  3.7892387445165515e-02  3.4505190509428428e-02  3.1148383178098801e-02  2.7882305263428352e-02  2.4755202037633876e-02  2.1803338433025635e-02  1.9051678625461841e-02  1.6514991093930745e-02  1.4199226768332861e-02  1.2103029898493024e-02  1.0219275357202347e-02  8.5365734602683464e-03  7.0407362986827761e-03  5.7162374833011681e-03  4.5477153315106366e-03  3.5215340200728182e-03  2.6273559090033379e-03  1.8595149006271976e-03  1.2178573269902588e-03  7.0728292905530767e-04  3.3535042734074828e-04  1.0546732256347461e-04  8.4785242124960085e-06  -2.1476968107638643e-06  -2.3756722051980216e-05  1.1967650208183672e-04  5.3536650759697694e-04  1.2058152103215278e-03  2.0992748489720141e-03  3.1660998391920487e-03  4.3458581766713539e-03  5.5743790074428276e-03  6.7900839233294812e-03  7.9387839122356928e-03  8.9770411701209259e-03  9.8740579817785980e-03  1.0612195974119132e-02  1.1186262508950728e-02  1.1601780739609730e-02  1.1872495675656887e-02  1.2017393276724703e-02  1.2057510266561497e-02  1.2012804138696657e-02  1.1899335485677801e-02  1.1726989153338396e-02  1.1497918351523792e-02  1.1205827756508111e-02  1.0836112964445681e-02  1.0366752758118762e-02  9.7697319954384038e-03  9.0126919795101689e-03  8.0604941974889727e-03  6.8764551007714511e-03  5.4231463810567315e-03  3.6628128525183256e-03  1.5575848638715163e-03  -9.3028541139110119e-04  -3.8379624944274559e-03  -7.2012240722561325e-03  -1.1053298003672886e-02  -1.5423401280031878e-02  -2.0335085625411066e-02  -2.5804508558826451e-02  -3.1838749500256600e-02  -3.8434289095266895e-02  -4.5575768452457234e-02  -5.3235138443035422e-02  -6.1371291879050320e-02  -6.9930241217793662e-02  -7.8845863692010160e-02  -8.8041189189180885e-02  -9.7430159963781418e-02  -1.0691975187999361e-01  -1.1641232012321516e-01  -1.2580802013360107e-01  -1.3500715943092542e-01  -1.4391235442937655e-01  -1.5243039551798737e-01  -1.6047375830985555e-01  -1.6796173447246426e-01  -1.7482118774159122e-01  -1.8098696644411877e-01  -1.8640202250184398e-01  -1.9101729700179970e-01  -1.9479143728761578e-01  -1.9769040850104294e-01  -1.9968705689020025e-01  -2.0076067542454359e-01  -2.0089661310319054e-01  -2.0008596035465462e-01  -1.9832533435865349e-01  -1.9561678066073498e-01  -1.9196779831444891e-01  -1.8739148953238327e-01  -1.8190682718245021e-01  -1.7553902493083837e-01  -1.6831998740916004e-01  -1.6028880941250950e-01  -1.5149228426443562e-01  -1.4198537369660735e-01  -1.3183158563119393e-01  -1.2110320156591180e-01  -1.0988129562324929e-01  -9.8255491707670020e-02  -8.6323414692007147e-02  -7.4189807477113220e-02  -6.1965306838841314e-02  -4.9764894411502912e-02  -3.7706064676516549e-02  -2.5906774744310832e-02  -1.4483257714236425e-02  -3.5477905712742643e-03  6.7934935648980730e-03  1.6442671057314916e-02  2.5311912827130682e-02  3.3325155053636382e-02  4.0419545370741154e-02  4.6546672040879603e-02  5.1673590490281959e-02  5.5783654859935444e-02  5.8877141823493719e-02  6.0971623281908867e-02  6.2102010755727431e-02  6.2320166460324206e-02  6.1693965201067492e-02  6.0305706212693801e-02  5.8249819925578060e-02  5.5629889218596330e-02  5.2555097256880907e-02  4.9136307305541034e-02  4.5482052996560614e-02  4.1694751927164403e-02  3.7867441207379920e-02  3.4081271911728328e-02  3.0403903041445603e-02  2.6888825030612028e-02  2.3575540391131713e-02  2.0490453212249307e-02  1.7648281266956417e-02  1.5053806616749809e-02  1.2703816645470597e-02  1.0589141824164211e-02  8.6967505940156748e-03  7.0118893971321738e-03  5.5202425770172160e-03  4.2100150136663433e-03  3.0737191003873572e-03  2.1092922232038036e-03  1.3199753958461045e-03  7.1242053781768759e-04  2.9211040122596315e-04  5.7507699832342884e-05  -1.1651678166145574e-05  -3.2989617714418047e-05  1.6623905218658821e-04  7.1803561745643961e-04  1.5701937407521830e-03  2.6702270178704099e-03  3.9541220628489457e-03  5.3505071378776451e-03  6.7859694100587649e-03  8.1911020646826885e-03  9.5053683775550186e-03  1.0680521531996095e-02  1.1682415049156626e-02  1.2491305998798075e-02  1.3100839005468287e-02  1.3515965758192800e-02  1.3750079237727043e-02  1.3821649216815815e-02  1.3750645397015216e-02  1.3555033354130044e-02  1.3247625504166929e-02  1.2833554330923570e-02  1.2308593317136993e-02  1.1658467752170405e-02  1.0859169917296648e-02  9.8781381954928856e-03  8.6760161931818004e-03  7.2086254268663658e-03  5.4288015905200977e-03  3.2878641195450229e-03  7.3667363256475966e-04  -2.2735862674148127e-03  -5.7906549227982442e-03  -9.8602144937133644e-03  -1.4524517448037419e-02  -1.9820587353307086e-02  -2.5778079969238161e-02  -3.2416969560655338e-02  -3.9745257928330668e-02  -4.7756908582672383e-02  -5.6430201827591592e-02  -6.5726691256869987e-02  -7.5590911820408835e-02  -8.5950937578365583e-02  -9.6719814953130909e-02  -1.0779781302871151e-01  -1.1907534940631828e-01  -1.3043638187158160e-01  -1.4176201365677307e-01  -1.5293404877120886e-01  -1.6383825412549205e-01  -1.7436713312254218e-01  -1.8442207868326735e-01  -1.9391484507272391e-01  -2.0276834369190536e-01  -2.1091682324711425e-01  -2.1830553286209314e-01  -2.2488998783316463e-01  -2.3063496345875878e-01  -2.3551333549881592e-01  -2.3950487181732322e-01  -2.4259505985014829e-01  -2.4477403534673833e-01  -2.4603565887754325e-01  -2.4637677049073900e-01  -2.4579664017764932e-01  -2.4429662134868291e-01  -2.4188000846489954e-01  -2.3855209297189259e-01  -2.3432040894506248e-01  -2.2919515543991992e-01  -2.2318977791365391e-01  -2.1632168727628787e-01  -2.0861308744168072e-01  -2.0009187592591848e-01  -1.9079257310160636e-01  -1.8075722621246479e-01  -1.7003622597322682e-01  -1.5868896664506066e-01  -1.4678427629481125e-01  -1.3440054686983827e-01  -1.2162550128619241e-01  -1.0855555234503436e-01  -9.5294732767600338e-02  -8.1953208413378498e-02  -6.8645423429644109e-02  -5.5487961931552303e-02  -4.2597242999630407e-02  -3.0087184512367724e-02  -1.8066975323113670e-02  -6.6390799762755621e-03  4.1024347188457410e-03  1.4073210158384770e-02  2.3199558449681561e-02  3.1419145388907846e-02  3.8681502370104676e-02  4.4948493206591798e-02  5.0194850136114397e-02  5.4408851282725698e-02  5.7593143037255906e-02  5.9765625910640711e-02  6.0960237171347464e-02  6.1227397564429360e-02  6.0633862084344334e-02  5.9261740818630192e-02  5.7206540027701383e-02  5.4574206070766566e-02  5.1477312145216031e-02  4.8030676274528228e-02  4.4346804437891865e-02  4.0531589765666946e-02  3.6680659619409479e-02  3.2876658982823159e-02  2.9187617276522075e-02  2.5666400635723369e-02  2.2351133179199893e-02  1.9266398825722043e-02  1.6425015577481092e-02  1.3830198295493142e-02  1.1477971449876450e-02  9.3597342421221311e-03  7.4648883987705065e-03  5.7834032791795834e-03  4.3081142172450545e-03  3.0364594064512685e-03  1.9713222331764588e-03  1.1206664678199783e-03  4.9611370973784690e-04  1.1048923121914143e-04  -2.2035393846597247e-05  -4.0279748558507882e-05  2.0260012832600964e-04  8.6688179082571070e-04  1.8731691496952810e-03  3.1470024657148299e-03  4.6074150236545906e-03  6.1703037419439484e-03  7.7527201899257698e-03  9.2784167237064674e-03  1.0682373932270841e-02  1.1913854310642149e-02  1.2937728719052303e-02  1.3734206163803352e-02  1.4297220005650216e-02  1.4631788794408004e-02  1.4750666763345827e-02  1.4670581693206257e-02  1.4408343839828553e-02  1.3977111675267747e-02  1.3383110133116962e-02  1.2623094948201848e-02  1.1682814870931377e-02  1.0536621120559461e-02  9.1482102328273186e-03  7.4722945312269747e-03  5.4568343539494312e-03  3.0454043732954994e-03  1.7934070272764604e-04  -3.2004924127098785e-03  -7.1522429603722171e-03  -1.1731667283438703e-02  -1.6990482562821114e-02  -2.2974267863747622e-02  -2.9719882758858722e-02  -3.7252552609884540e-02  -4.5582891317519615e-02  -5.4704179443311247e-02  -6.4590209186761158e-02  -7.5193972780139576e-02  -8.6447416858463549e-02  -9.8262406560189128e-02  -1.1053293323641747e-01  -1.2313846783314560e-01  -1.3594822740906010e-01  -1.4882601204240486e-01  -1.6163520479124061e-01  -1.7424351923384385e-01  -1.8652712805686961e-01  -1.9837389983295561e-01  -2.0968559137483433e-01  -2.2037896563341577e-01  -2.3038591502841299e-01  -2.3965274923596558e-01  -2.4813885360062499e-01  -2.5581493753703799e-01  -2.6266107864884969e-01  -2.6866473794567702e-01  -2.7381888078668498e-01  -2.7812029659452364e-01  -2.8156817218789959e-01  -2.8416294283095772e-01  -2.8590542195738128e-01  -2.8679619618193253e-01  -2.8683526385751351e-01  -2.8602189268984957e-01  -2.8435467366660955e-01  -2.8183175083225542e-01  -2.7845121152003360e-01  -2.7421162521505177e-01  -2.6911272218611071e-01  -2.6315620415700214e-01  -2.5634667796042188e-01  -2.4869269982269346e-01  -2.4020790957910063e-01  -2.3091222488816601e-01  -2.2083305216509100e-01  -2.1000645607234936e-01  -1.9847821446220773e-01  -1.8630467234062478e-01  -1.7355329926114391e-01  -1.6030285416625853e-01  -1.4664307082187950e-01  -1.3267380056241562e-01  -1.1850358524872544e-01  -1.0424768212500223e-01  -9.0025620177434346e-02  -7.5958424148328915e-02  -6.2165692250742942e-02  -4.8762744571803809e-02  -3.5858062923685666e-02  -2.3551215940973889e-02  -1.1931403707328994e-02  -1.0766721088208626e-03  8.9462501880305766e-03  1.8081634512008227e-02  2.6284172701372052e-02  3.3518394387638678e-02  3.9758336230270308e-02  4.4987664765665056e-02  4.9200355207298214e-02  5.2401896238677394e-02  5.4610845656990648e-02  5.5860430998922662e-02  5.6199802947710688e-02  5.5694533089226700e-02  5.4426016363048169e-02  5.2489588172793249e-02  4.9991371567502600e-02  4.7044088120084378e-02  4.3762247450065662e-02  4.0257233018766068e-02  3.6632804814802765e-02  3.2981448858174521e-02  2.9381848610756146e-02  2.5897576960875811e-02  2.2576950974749870e-02  1.9453884906386536e-02  1.6549529868980690e-02  1.3874492224581446e-02  1.1431450927907018e-02  9.2180206772873481e-03  7.2297052543514881e-03  5.4627704739845500e-03  3.9168229989528279e-03  2.5969821662662003e-03  1.5154411509580852e-03  6.9330828171771579e-04  1.6117628115147869e-04  -3.2020258849745927e-05  -4.6246298265701123e-05  2.3229697849790144e-04  9.9083952997923875e-04  2.1278699843609345e-03  3.5473883071445995e-03  5.1499171832456820e-03  6.8368326107016925e-03  8.5146746418747893e-03  1.0100449270990412e-02  1.1525705145566334e-02  1.2738910847622796e-02  1.3705923600584093e-02  1.4408769149184276e-02  1.4843100740242294e-02  1.5014744962674763e-02  1.4935702489633886e-02  1.4619917289064831e-02  1.4079095397565423e-02  1.3318856251508136e-02  1.2335521194029309e-02  1.1113849548687152e-02  9.6259808672384470e-03  7.8317055674901430e-03  5.6799754750430616e-03  3.1113382420555461e-03  6.0825425800569819e-05  -3.5391766105665095e-03  -7.7563713470607497e-03  -1.2656331792772721e-02  -1.8300378767054665e-02  -2.4743213049589742e-02  -3.2030045340429747e-02  -4.0193202249643740e-02  -4.9248449998808098e-02  -5.9191462176862011e-02  -6.9994919122096697e-02  -8.1606685278998156e-02  -9.3949410042152001e-02  -1.0692176388270291e-01  -1.2040135974698236e-01  -1.3424922066192166e-01  -1.4