<?xml version="1.0"?>
<VTKFile type="UnstructuredGrid"  version="0.1"  >
<UnstructuredGrid>
<Piece  NumberOfPoints="1089" NumberOfCells="1024">
<Points>
<DataArray  type="Float64"  NumberOfComponents="3"  format="ascii">0 0 0  0.03125 0 0  0.0625 0 0  0.09375 0 0  0.125 0 0  0.15625 0 0  0.1875 0 0  0.21875 0 0  0.25 0 0  0.28125 0 0  0.3125 0 0  0.34375 0 0  0.375 0 0  0.40625 0 0  0.4375 0 0  0.46875 0 0  0.5 0 0  0.53125 0 0  0.5625 0 0  0.59375 0 0  0.625 0 0  0.65625 0 0  0.6875 0 0  0.71875 0 0  0.75 0 0  0.78125 0 0  0.8125 0 0  0.84375 0 0  0.875 0 0  0.90625 0 0  0.9375 0 0  0.96875 0 0  1 0 0  0 0.03125 0  0.03125 0.03125 0  0.0625 0.03125 0  0.09375 0.03125 0  0.125 0.03125 0  0.15625 0.03125 0  0.1875 0.03125 0  0.21875 0.03125 0  0.25 0.03125 0  0.28125 0.03125 0  0.3125 0.03125 0  0.34375 0.03125 0  0.375 0.03125 0  0.40625 0.03125 0  0.4375 0.03125 0  0.46875 0.03125 0  0.5 0.03125 0  0.53125 0.03125 0  0.5625 0.03125 0  0.59375 0.03125 0  0.625 0.03125 0  0.65625 0.03125 0  0.6875 0.03125 0  0.71875 0.03125 0  0.75 0.03125 0  0.78125 0.03125 0  0.8125 0.03125 0  0.84375 0.03125 0  0.875 0.03125 0  0.90625 0.03125 0  0.9375 0.03125 0  0.96875 0.03125 0  1 0.03125 0  0 0.0625 0  0.03125 0.0625 0  0.0625 0.0625 0  0.09375 0.0625 0  0.125 0.0625 0  0.15625 0.0625 0  0.1875 0.0625 0  0.21875 0.0625 0  0.25 0.0625 0  0.28125 0.0625 0  0.3125 0.0625 0  0.34375 0.0625 0  0.375 0.0625 0  0.40625 0.0625 0  0.4375 0.0625 0  0.46875 0.0625 0  0.5 0.0625 0  0.53125 0.0625 0  0.5625 0.0625 0  0.59375 0.0625 0  0.625 0.0625 0  0.65625 0.0625 0  0.6875 0.0625 0  0.71875 0.0625 0  0.75 0.0625 0  0.78125 0.0625 0  0.8125 0.0625 0  0.84375 0.0625 0  0.875 0.0625 0  0.90625 0.0625 0  0.9375 0.0625 0  0.96875 0.0625 0  1 0.0625 0  0 0.09375 0  0.03125 0.09375 0  0.0625 0.09375 0  0.09375 0.09375 0  0.125 0.09375 0  0.15625 0.09375 0  0.1875 0.09375 0  0.21875 0.09375 0  0.25 0.09375 0  0.28125 0.09375 0  0.3125 0.09375 0  0.34375 0.09375 0  0.375 0.09375 0  0.40625 0.09375 0  0.4375 0.09375 0  0.46875 0.09375 0  0.5 0.09375 0  0.53125 0.09375 0  0.5625 0.09375 0  0.59375 0.09375 0  0.625 0.09375 0  0.65625 0.09375 0  0.6875 0.09375 0  0.71875 0.09375 0  0.75 0.09375 0  0.78125 0.09375 0  0.8125 0.09375 0  0.84375 0.09375 0  0.875 0.09375 0  0.90625 0.09375 0  0.9375 0.09375 0  0.96875 0.09375 0  1 0.09375 0  0 0.125 0  0.03125 0.125 0  0.0625 0.125 0  0.09375 0.125 0  0.125 0.125 0  0.15625 0.125 0  0.1875 0.125 0  0.21875 0.125 0  0.25 0.125 0  0.28125 0.125 0  0.3125 0.125 0  0.34375 0.125 0  0.375 0.125 0  0.40625 0.125 0  0.4375 0.125 0  0.46875 0.125 0  0.5 0.125 0  0.53125 0.125 0  0.5625 0.125 0  0.59375 0.125 0  0.625 0.125 0  0.65625 0.125 0  0.6875 0.125 0  0.71875 0.125 0  0.75 0.125 0  0.78125 0.125 0  0.8125 0.125 0  0.84375 0.125 0  0.875 0.125 0  0.90625 0.125 0  0.9375 0.125 0  0.96875 0.125 0  1 0.125 0  0 0.15625 0  0.03125 0.15625 0  0.0625 0.15625 0  0.09375 0.15625 0  0.125 0.15625 0  0.15625 0.15625 0  0.1875 0.15625 0  0.21875 0.15625 0  0.25 0.15625 0  0.28125 0.15625 0  0.3125 0.15625 0  0.34375 0.15625 0  0.375 0.15625 0  0.40625 0.15625 0  0.4375 0.15625 0  0.46875 0.15625 0  0.5 0.15625 0  0.53125 0.15625 0  0.5625 0.15625 0  0.59375 0.15625 0  0.625 0.15625 0  0.65625 0.15625 0  0.6875 0.15625 0  0.71875 0.15625 0  0.75 0.15625 0  0.78125 0.15625 0  0.8125 0.15625 0  0.84375 0.15625 0  0.875 0.15625 0  0.90625 0.15625 0  0.9375 0.15625 0  0.96875 0.15625 0  1 0.15625 0  0 0.1875 0  0.03125 0.1875 0  0.0625 0.1875 0  0.09375 0.1875 0  0.125 0.1875 0  0.15625 0.1875 0  0.1875 0.1875 0  0.21875 0.1875 0  0.25 0.1875 0  0.28125 0.1875 0  0.3125 0.1875 0  0.34375 0.1875 0  0.375 0.1875 0  0.40625 0.1875 0  0.4375 0.1875 0  0.46875 0.1875 0  0.5 0.1875 0  0.53125 0.1875 0  0.5625 0.1875 0  0.59375 0.1875 0  0.625 0.1875 0  0.65625 0.1875 0  0.6875 0.1875 0  0.71875 0.1875 0  0.75 0.1875 0  0.78125 0.1875 0  0.8125 0.1875 0  0.84375 0.1875 0  0.875 0.1875 0  0.90625 0.1875 0  0.9375 0.1875 0  0.96875 0.1875 0  1 0.1875 0  0 0.21875 0  0.03125 0.21875 0  0.0625 0.21875 0  0.09375 0.21875 0  0.125 0.21875 0  0.15625 0.21875 0  0.1875 0.21875 0  0.21875 0.21875 0  0.25 0.21875 0  0.28125 0.21875 0  0.3125 0.21875 0  0.34375 0.21875 0  0.375 0.21875 0  0.40625 0.21875 0  0.4375 0.21875 0  0.46875 0.21875 0  0.5 0.21875 0  0.53125 0.21875 0  0.5625 0.21875 0  0.59375 0.21875 0  0.625 0.21875 0  0.65625 0.21875 0  0.6875 0.21875 0  0.71875 0.21875 0  0.75 0.21875 0  0.78125 0.21875 0  0.8125 0.21875 0  0.84375 0.21875 0  0.875 0.21875 0  0.90625 0.21875 0  0.9375 0.21875 0  0.96875 0.21875 0  1 0.21875 0  0 0.25 0  0.03125 0.25 0  0.0625 0.25 0  0.09375 0.25 0  0.125 0.25 0  0.15625 0.25 0  0.1875 0.25 0  0.21875 0.25 0  0.25 0.25 0  0.28125 0.25 0  0.3125 0.25 0  0.34375 0.25 0  0.375 0.25 0  0.40625 0.25 0  0.4375 0.25 0  0.46875 0.25 0  0.5 0.25 0  0.53125 0.25 0  0.5625 0.25 0  0.59375 0.25 0  0.625 0.25 0  0.65625 0.25 0  0.6875 0.25 0  0.71875 0.25 0  0.75 0.25 0  0.78125 0.25 0  0.8125 0.25 0  0.84375 0.25 0  0.875 0.25 0  0.90625 0.25 0  0.9375 0.25 0  0.96875 0.25 0  1 0.25 0  0 0.28125 0  0.03125 0.28125 0  0.0625 0.28125 0  0.09375 0.28125 0  0.125 0.28125 0  0.15625 0.28125 0  0.1875 0.28125 0  0.21875 0.28125 0  0.25 0.28125 0  0.28125 0.28125 0  0.3125 0.28125 0  0.34375 0.28125 0  0.375 0.28125 0  0.40625 0.28125 0  0.4375 0.28125 0  0.46875 0.28125 0  0.5 0.28125 0  0.53125 0.28125 0  0.5625 0.28125 0  0.59375 0.28125 0  0.625 0.28125 0  0.65625 0.28125 0  0.6875 0.28125 0  0.71875 0.28125 0  0.75 0.28125 0  0.78125 0.28125 0  0.8125 0.28125 0  0.84375 0.28125 0  0.875 0.28125 0  0.90625 0.28125 0  0.9375 0.28125 0  0.96875 0.28125 0  1 0.28125 0  0 0.3125 0  0.03125 0.3125 0  0.0625 0.3125 0  0.09375 0.3125 0  0.125 0.3125 0  0.15625 0.3125 0  0.1875 0.3125 0  0.21875 0.3125 0  0.25 0.3125 0  0.28125 0.3125 0  0.3125 0.3125 0  0.34375 0.3125 0  0.375 0.3125 0  0.40625 0.3125 0  0.4375 0.3125 0  0.46875 0.3125 0  0.5 0.3125 0  0.53125 0.3125 0  0.5625 0.3125 0  0.59375 0.3125 0  0.625 0.3125 0  0.65625 0.3125 0  0.6875 0.3125 0  0.71875 0.3125 0  0.75 0.3125 0  0.78125 0.3125 0  0.8125 0.3125 0  0.84375 0.3125 0  0.875 0.3125 0  0.90625 0.3125 0  0.9375 0.3125 0  0.96875 0.3125 0  1 0.3125 0  0 0.34375 0  0.03125 0.34375 0  0.0625 0.34375 0  0.09375 0.34375 0  0.125 0.34375 0  0.15625 0.34375 0  0.1875 0.34375 0  0.21875 0.34375 0  0.25 0.34375 0  0.28125 0.34375 0  0.3125 0.34375 0  0.34375 0.34375 0  0.375 0.34375 0  0.40625 0.34375 0  0.4375 0.34375 0  0.46875 0.34375 0  0.5 0.34375 0  0.53125 0.34375 0  0.5625 0.34375 0  0.59375 0.34375 0  0.625 0.34375 0  0.65625 0.34375 0  0.6875 0.34375 0  0.71875 0.34375 0  0.75 0.34375 0  0.78125 0.34375 0  0.8125 0.34375 0  0.84375 0.34375 0  0.875 0.34375 0  0.90625 0.34375 0  0.9375 0.34375 0  0.96875 0.34375 0  1 0.34375 0  0 0.375 0  0.03125 0.375 0  0.0625 0.375 0  0.09375 0.375 0  0.125 0.375 0  0.15625 0.375 0  0.1875 0.375 0  0.21875 0.375 0  0.25 0.375 0  0.28125 0.375 0  0.3125 0.375 0  0.34375 0.375 0  0.375 0.375 0  0.40625 0.375 0  0.4375 0.375 0  0.46875 0.375 0  0.5 0.375 0  0.53125 0.375 0  0.5625 0.375 0  0.59375 0.375 0  0.625 0.375 0  0.65625 0.375 0  0.6875 0.375 0  0.71875 0.375 0  0.75 0.375 0  0.78125 0.375 0  0.8125 0.375 0  0.84375 0.375 0  0.875 0.375 0  0.90625 0.375 0  0.9375 0.375 0  0.96875 0.375 0  1 0.375 0  0 0.40625 0  0.03125 0.40625 0  0.0625 0.40625 0  0.09375 0.40625 0  0.125 0.40625 0  0.15625 0.40625 0  0.1875 0.40625 0  0.21875 0.40625 0  0.25 0.40625 0  0.28125 0.40625 0  0.3125 0.40625 0  0.34375 0.40625 0  0.375 0.40625 0  0.40625 0.40625 0  0.4375 0.40625 0  0.46875 0.40625 0  0.5 0.40625 0  0.53125 0.40625 0  0.5625 0.40625 0  0.59375 0.40625 0  0.625 0.40625 0  0.65625 0.40625 0  0.6875 0.40625 0  0.71875 0.40625 0  0.75 0.40625 0  0.78125 0.40625 0  0.8125 0.40625 0  0.84375 0.40625 0  0.875 0.40625 0  0.90625 0.40625 0  0.9375 0.40625 0  0.96875 0.40625 0  1 0.40625 0  0 0.4375 0  0.03125 0.4375 0  0.0625 0.4375 0  0.09375 0.4375 0  0.125 0.4375 0  0.15625 0.4375 0  0.1875 0.4375 0  0.21875 0.4375 0  0.25 0.4375 0  0.28125 0.4375 0  0.3125 0.4375 0  0.34375 0.4375 0  0.375 0.4375 0  0.40625 0.4375 0  0.4375 0.4375 0  0.46875 0.4375 0  0.5 0.4375 0  0.53125 0.4375 0  0.5625 0.4375 0  0.59375 0.4375 0  0.625 0.4375 0  0.65625 0.4375 0  0.6875 0.4375 0  0.71875 0.4375 0  0.75 0.4375 0  0.78125 0.4375 0  0.8125 0.4375 0  0.84375 0.4375 0  0.875 0.4375 0  0.90625 0.4375 0  0.9375 0.4375 0  0.96875 0.4375 0  1 0.4375 0  0 0.46875 0  0.03125 0.46875 0  0.0625 0.46875 0  0.09375 0.46875 0  0.125 0.46875 0  0.15625 0.46875 0  0.1875 0.46875 0  0.21875 0.46875 0  0.25 0.46875 0  0.28125 0.46875 0  0.3125 0.46875 0  0.34375 0.46875 0  0.375 0.46875 0  0.40625 0.46875 0  0.4375 0.46875 0  0.46875 0.46875 0  0.5 0.46875 0  0.53125 0.46875 0  0.5625 0.46875 0  0.59375 0.46875 0  0.625 0.46875 0  0.65625 0.46875 0  0.6875 0.46875 0  0.71875 0.46875 0  0.75 0.46875 0  0.78125 0.46875 0  0.8125 0.46875 0  0.84375 0.46875 0  0.875 0.46875 0  0.90625 0.46875 0  0.9375 0.46875 0  0.96875 0.46875 0  1 0.46875 0  0 0.5 0  0.03125 0.5 0  0.0625 0.5 0  0.09375 0.5 0  0.125 0.5 0  0.15625 0.5 0  0.1875 0.5 0  0.21875 0.5 0  0.25 0.5 0  0.28125 0.5 0  0.3125 0.5 0  0.34375 0.5 0  0.375 0.5 0  0.40625 0.5 0  0.4375 0.5 0  0.46875 0.5 0  0.5 0.5 0  0.53125 0.5 0  0.5625 0.5 0  0.59375 0.5 0  0.625 0.5 0  0.65625 0.5 0  0.6875 0.5 0  0.71875 0.5 0  0.75 0.5 0  0.78125 0.5 0  0.8125 0.5 0  0.84375 0.5 0  0.875 0.5 0  0.90625 0.5 0  0.9375 0.5 0  0.96875 0.5 0  1 0.5 0  0 0.53125 0  0.03125 0.53125 0  0.0625 0.53125 0  0.09375 0.53125 0  0.125 0.53125 0  0.15625 0.53125 0  0.1875 0.53125 0  0.21875 0.53125 0  0.25 0.53125 0  0.28125 0.53125 0  0.3125 0.53125 0  0.34375 0.53125 0  0.375 0.53125 0  0.40625 0.53125 0  0.4375 0.53125 0  0.46875 0.53125 0  0.5 0.53125 0  0.53125 0.53125 0  0.5625 0.53125 0  0.59375 0.53125 0  0.625 0.53125 0  0.65625 0.53125 0  0.6875 0.53125 0  0.71875 0.53125 0  0.75 0.53125 0  0.78125 0.531
[...]
<PointData  Scalars="u_sol"> 
<DataArray  type="Float64"  Name="u_sol"  format="ascii">-1.5328916702865014e-07  7.6763063014322375e-07  3.3921834918375342e-06  7.5214567796570790e-06  1.2955737685682308e-05  1.9484352875924893e-05  2.6889778812537440e-05  3.4948170569921677e-05  4.3431115727113295e-05  5.2107347304869808e-05  6.0744781978613549e-05  6.9112811703197791e-05  7.6984897737074681e-05  8.4141484744519311e-05  9.0373263680279105e-05  9.5484811186601705e-05  9.9298635984800749e-05  1.0165966453288282e-04  1.0244020028086305e-04  1.0154539343148530e-04  9.8919259814824880e-05  9.4551291295176426e-05  8.8483700548033347e-05  8.0819349402938670e-05  7.1730408953210007e-05  6.1467800502629284e-05  5.0371509929878152e-05  3.8881664268838587e-05  2.7551138384562558e-05  1.7057022830136137e-05  8.2214092197254594e-06  2.0025898119526348e-06  -3.9762927919397232e-07  -9.1868368502061682e-06  4.6005160019211021e-05  2.0329832207779090e-04  4.5077145185296367e-04  7.7645552789053847e-04  1.1677245896490804e-03  1.6115421360287183e-03  2.0944928396358937e-03  2.6028876170127225e-03  3.1228663226320935e-03  3.6405198767712190e-03  4.1420276206328406e-03  4.6138127706981955e-03  5.0427170698010273e-03  5.4161963338817329e-03  5.7225385672645549e-03  5.9511064687576163e-03  6.0926062619019528e-03  6.1393849131092656e-03  6.0857579352396624e-03  5.9283701195135237e-03  5.6665916829830030e-03  5.3029525028438036e-03  4.8436171930477424e-03  4.2989042656297024e-03  3.6838516795855659e-03  3.0188354452240465e-03  2.3302327248368670e-03  1.6511784637357530e-03  1.0222512841875967e-03  4.9272021819644115e-04  1.2001804946162759e-04  -2.3830447583459594e-05  -1.6467016150900340e-05  8.2462301250963503e-05  3.6440363647431348e-04  8.0798874588552700e-04  1.3917636654931524e-03  2.0930968954541128e-03  2.8886210588996075e-03  3.7542897498474984e-03  4.6655658658461257e-03  5.5976056832656865e-03  6.5254777658281301e-03  7.4244091679912701e-03  8.2700640801568436e-03  9.0388568833826514e-03  9.7083026586781418e-03  1.0257408149469471e-02  1.0667106443546973e-02  1.0920738839917484e-02  1.1004587599676296e-02  1.0908463519975585e-02  1.0626352530624186e-02  1.0157125771575775e-02  9.5053179397717475e-03  8.6819788435248801e-03  7.7056039786368869e-03  6.6031482484081245e-03  5.4111347915157546e-03  4.1768435508414683e-03  2.9596675222372274e-03  1.8323421578342329e-03  8.8318012005511766e-04  2.1512726915199571e-04  -4.2715067134008280e-05  -2.2115053950628911e-05  1.1074612578110870e-04  4.8939079274177113e-04  1.0851215889302369e-03  1.8691260340151100e-03  2.8110102279701402e-03  3.8793919946812582e-03  5.0419772282611118e-03  6.2658128221231187e-03  7.5175338802283736e-03  8.7636577092245899e-03  9.9709144672348957e-03  1.1106621381841845e-02  1.2139103179736890e-02  1.3038162817602898e-02  1.3775606541242017e-02  1.4325827659560775e-02  1.4666453687404407e-02  1.4779061825104443e-02  1.4649968064910401e-02  1.4271095564252474e-02  1.3640928273376731e-02  1.2765556248087100e-02  1.1659819279962961e-02  1.0348556651613048e-02  8.8679685544979445e-03  7.2671052337883856e-03  5.6094632275706519e-03  3.9748067937184399e-03  2.4608189904471887e-03  1.1861029314755836e-03  2.8891397944382830e-04  -5.7365949476638362e-05  -2.6246374694248961e-05  1.3143464717629868e-04  5.8081405332714308e-04  1.2878335226029715e-03  2.2182981051187605e-03  3.3361360058505331e-03  4.6041025336874238e-03  5.9838707100493393e-03  7.4363314477186105e-03  8.9218869435867890e-03  1.0400799591469490e-02  1.1833584399402864e-02  1.3181453115364306e-02  1.4406813197514527e-02  1.5473826482507688e-02  1.6349032331137641e-02  1.7002040457369014e-02  1.7406298964132753e-02  1.7539943481787050e-02  1.7386733687702424e-02  1.6937083900544027e-02  1.6189194855423802e-02  1.5150294291962248e-02  1.3837994226761007e-02  1.2281774176118969e-02  1.0524596901284742e-02  8.6246757409412476e-03  6.6573690448844145e-03  4.7173418614446664e-03  2.9205254577654468e-03  1.4076792392924463e-03  3.4288610176488670e-04  -6.8082502709944842e-05  -2.8977957587850503e-05  1.4511366526632737e-04  6.4126208682831773e-04  1.4218643771908579e-03  2.4491667578523764e-03  3.6833432732266869e-03  5.0832730030921794e-03  6.6066401012736678e-03  8.2102652155085359e-03  9.8504294148562075e-03  1.1483259415417914e-02  1.3065160838228616e-02  1.4553308557134496e-02  1.5906197599137653e-02  1.7084259955890090e-02  1.8050552582993665e-02  1.8771522334958008e-02  1.9217853934031959e-02  1.9365407482430069e-02  1.9196252449862377e-02  1.8699805526613246e-02  1.7874080187942419e-02  1.6727056396180356e-02  1.5278179131216133e-02  1.3559995979476656e-02  1.1619941037690122e-02  9.5222861799393963e-03  7.3502326541373900e-03  5.2082977455353684e-03  3.2244782339629439e-03  1.5541830170843378e-03  3.7857186591466589e-04  -7.5168167939356333e-05  -3.0426365249380094e-05  1.5236689368259093e-04  6.7331434298535165e-04  1.4929335420874657e-03  2.5715836617835482e-03  3.8674481221274578e-03  5.3373506524528958e-03  6.9368603303354643e-03  8.6206395668748399e-03  1.0342784224945457e-02  1.2057228099622612e-02  1.3718197831532679e-02  1.5280727763709780e-02  1.6701238377503706e-02  1.7938183934079290e-02  1.8952774861916585e-02  1.9709780925471199e-02  2.0178421578038199e-02  2.0333350333726127e-02  2.0155740436956858e-02  1.9634479589128090e-02  1.8767481970390226e-02  1.7563126404011850e-02  1.6041829788449938e-02  1.4237766538324780e-02  1.2200741653484551e-02  9.9982395161928046e-03  7.7176200321437786e-03  5.4686245858599509e-03  3.3856476343259133e-03  1.6318658935002754e-03  3.9749405921258820e-04  -7.8925305554257969e-05  -3.0708271921057189e-05  1.5377860502680801e-04  6.7955274169242930e-04  1.5067658838321956e-03  2.5954099210513371e-03  3.9032808335861232e-03  5.3868023134003512e-03  7.0011317764011290e-03  8.7005115719347957e-03  1.0438612252300122e-02  1.2168940800731930e-02  1.3845299759515640e-02  1.5422306856941832e-02  1.6855978802331920e-02  1.8104384927834324e-02  1.9128376268762716e-02  1.9892396173604516e-02  2.0365378906109892e-02  2.0521743137736612e-02  2.0342487676316960e-02  1.9816397262468359e-02  1.8941366747974520e-02  1.7725852585503941e-02  1.6190460839247533e-02  1.4369682557071165e-02  1.2313784193996574e-02  1.0090875391615777e-02  7.7891254665818036e-03  5.5192925833803591e-03  3.4170163946648634e-03  1.6469854844150960e-03  4.0117692759834308e-04  -7.9656565550926658e-05  -2.9940321917434852e-05  1.4993292204212446e-04  6.6255854068071195e-04  1.4690848009017506e-03  2.5305041112349885e-03  3.8056678861474618e-03  5.2520895701776184e-03  6.8260479990736173e-03  8.4829298263568009e-03  1.0177564208418652e-02  1.1864620823564775e-02  1.3499057518191471e-02  1.5036626938757423e-02  1.6434445727026376e-02  1.7651631815306400e-02  1.8650015273681157e-02  1.9394928648106845e-02  1.9856083090251907e-02  2.0008537004887344e-02  1.9833764377003776e-02  1.9320830414268807e-02  1.8467682611050064e-02  1.7282565939906406e-02  1.5785571149739205e-02  1.4010326739919598e-02  1.2005842108053971e-02  9.8385236179541150e-03  7.5943356579874308e-03  5.3812665635955331e-03  3.3315639233893932e-03  1.6057978023825046e-03  3.9114432655610221e-04  -7.7664520410882445e-05  -2.8239167548421872e-05  1.4141400749903213e-04  6.2491317464217436e-04  1.3856140842465631e-03  2.3867254841127084e-03  3.5894367755149375e-03  4.9536754110536740e-03  6.4382043830849807e-03  8.0009451943542937e-03  9.5992935269871727e-03  1.1190494646843475e-02  1.2732065615168693e-02  1.4182273134442969e-02  1.5500670402650050e-02  1.6648698198153924e-02  1.7590355337493840e-02  1.8292944107635548e-02  1.8727896615646198e-02  1.8871688399510297e-02  1.8706846055312160e-02  1.8223056082476378e-02  1.7418382592570027e-02  1.6300602092728673e-02  1.4888663812590556e-02  1.3214285543388490e-02  1.1323692060992652e-02  9.2795166437898199e-03  7.1628393430658230e-03  5.0755127954631926e-03  3.1422705230616283e-03  1.5145592911689426e-03  3.6892021672454690e-04  -7.3251763482583613e-05  -2.5721458952700866e-05  1.2880601330037737e-04  5.6919803027495901e-04  1.2620774184651429e-03  2.1739331083515520e-03  3.2694147221237198e-03  4.5120224445691021e-03  5.8641958198653241e-03  7.2876079274052982e-03  8.7434529069462721e-03  1.0192787893244695e-02  1.1596917584670937e-02  1.2917829485705638e-02  1.4118682896715716e-02  1.5164356407671917e-02  1.6022058579751447e-02  1.6662006917073178e-02  1.7058180541788950e-02  1.7189152350718259e-02  1.7039006806462555e-02  1.6598349922489569e-02  1.5865418405872109e-02  1.4847295436438581e-02  1.3561240796029880e-02  1.2036144427590519e-02  1.0314109865603174e-02  8.4521862200213505e-03  6.5242247206474917e-03  4.6229971672114246e-03  2.8621162607358132e-03  1.3795262811474942e-03  3.3602853112486326e-04  -6.6720882636222843e-05  -2.2503846823114812e-05  1.1269309412120090e-04  4.9799450654279900e-04  1.1041985153551245e-03  1.9019860994669870e-03  2.8604290168641028e-03  3.9475933765207903e-03  5.1306173273247260e-03  6.3759684343347991e-03  7.6496952363107875e-03  8.9177264063158360e-03  1.0146207212870493e-02  1.1301880315775311e-02  1.2352513585560599e-02  1.3267379108263370e-02  1.4017787473664087e-02  1.4577681811108703e-02  1.4924296309095104e-02  1.5038884274051157e-02  1.4907521111501383e-02  1.4521987968415652e-02  1.3880742129090053e-02  1.2989980707502969e-02  1.1864804384747999e-02  1.0530489135318857e-02  9.0238715781938497e-03  7.3948642978888899e-03  5.7080801445606897e-03  4.0446856769745148e-03  2.5040812714641971e-03  1.2069551353902312e-03  2.9399321073831909e-04  -5.8374467317866364e-05  -1.8702981681070995e-05  9.3659403780592748e-05  4.1388399861112801e-04  9.1770107825407503e-04  1.5807435583288462e-03  2.3773069285032869e-03  3.2808508820770846e-03  4.2640638835072867e-03  5.2990770744514139e-03  6.3576733438498447e-03  7.4115359608938293e-03  8.4325282083652798e-03  9.3930098623746742e-03  1.0266192753318222e-02  1.1026538866937602e-02  1.1650204391584160e-02  1.2115533421985972e-02  1.2403605255897350e-02  1.2498839485255599e-02  1.2389663355783263e-02  1.2069246164379340e-02  1.1536305757415948e-02  1.0795992567495577e-02  9.8608567972722095e-03  8.7519053522940888e-03  7.4997532072012488e-03  6.1458827898680886e-03  4.7439939387480040e-03  3.3615443014988547e-03  2.0811456767906764e-03  1.0031022102903984e-03  2.4433819486415891e-04  -4.8515106640861579e-05  -1.4435514080113983e-05  7.2289096258942778e-05  3.1944790233005008e-04  7.0830881195235837e-04  1.2200645881999081e-03  1.8348757292579406e-03  2.5322576409990147e-03  3.2911304722734696e-03  4.0899842141999153e-03  4.9070400669148579e-03  5.7204423420098424e-03  6.5084742917727745e-03  7.2498023773239573e-03  7.9237507005784046e-03  8.5106082698032173e-03  8.9919717278561118e-03  9.3511264070036699e-03  9.5734687486765616e-03  9.6469733311618372e-03  9.5627079582870349e-03  9.3154004900129293e-03  8.9040613225169988e-03  8.3326657142941841e-03  7.6109002869731860e-03  6.7549787962990441e-03  5.7885307891233379e-03  4.7435736315447532e-03  3.6615544447696977e-03  2.5945390296428310e-03  1.6062896054125618e-03  7.7422386547639486e-04  1.8858742353691262e-04  -3.7445389863000998e-05  -9.8180945626948885e-06  4.9166325483411887e-05  2.1726761327898295e-04  4.8174542057379552e-04  8.2980829108650453e-04  1.2479626893057622e-03  1.7222763300531879e-03  2.2384120734008032e-03  2.7817402147774285e-03  3.3374482364418802e-03  3.8906713271941889e-03  4.4266391752968903e-03  4.9308421033827255e-03  5.3892177185711964e-03  5.7883598937171956e-03  6.1157518681160244e-03  6.3600254157113343e-03  6.5112481474778553e-03  6.5612411537227184e-03  6.5039293347743778e-03  6.3357269233353421e-03  6.0559608558385771e-03  5.6673348466072561e-03  5.1764371086845369e-03  4.5942951867700109e-03  3.9369803619148623e-03  3.2262687594888056e-03  2.4903500045955324e-03  1.7646358501787161e-03  1.0924931856761387e-03  5.2657646024256515e-04  1.2826483666299144e-04  -2.5467906216981202e-05  -4.9673736840553256e-06  2.4875245446677056e-05  1.0992452729531889e-04  2.4373460876229433e-04  4.1983376981387225e-04  6.3139507994791687e-04  8.7136962741364381e-04  1.1325036683150574e-03  1.4073954392135087e-03  1.6885506853229265e-03  1.9684486960040164e-03  2.2396165732069297e-03  2.4947132854075578e-03  2.7266241006741769e-03  2.9285663177726858e-03  3.0942072003628624e-03  3.2177951001701407e-03  3.2943048149894740e-03  3.3195982975970598e-03  3.2906019036567625e-03  3.2055014448010969e-03  3.0639563908787990e-03  2.8673346646667457e-03  2.6189695181446336e-03  2.3244402434181512e-03  1.9918779632493930e-03  1.6323001095892231e-03  1.2599689593141760e-03  8.9280075100972068e-04  5.5273654524346254e-04  2.6641635348478919e-04  6.4894374036147154e-05  -1.2885244912165795e-05  -2.0166357938431256e-12  1.0229936823561633e-11  4.0582607121490036e-11  8.1945879146300997e-11  1.2852546255722466e-10  1.7441975083987724e-10  2.1383960217191323e-10  2.4165791928331899e-10  2.5430355323976204e-10  2.5063085290824560e-10  2.3241296472024850e-10  2.0421274321046993e-10  1.7249267445990551e-10  1.4406489203109046e-10  1.2418932005127998e-10  1.1481593832813223e-10  1.1352500666958468e-10  1.1362850147833640e-10  1.0562829257099165e-10  7.9853000480773063e-11  2.9658212084143758e-11  -4.5684958933958124e-11  -1.3946414823776817e-10  -2.3798244161102027e-10  -3.2343205479297406e-10  -3.7822156069201349e-10  -3.9026959176282836e-10  -3.5644742984054064e-10  -2.8460098305273735e-10  -1.9104963816277791e-10  -9.7208518713915279e-11  -2.4852222933911191e-11  4.9021699514376757e-12  4.9673698432633290e-06  -2.4875225964550739e-05  -1.0992445013713992e-04  -2.4373445330480990e-04  -4.1983352666175266e-04  -6.3139475107202876e-04  -8.7136922583893283e-04  -1.1325032167442929e-03  -1.4073949669423493e-03  -1.6885502235013615e-03  -1.9684482719744380e-03  -2.2396162051219609e-03  -2.4947129785958923e-03  -2.7266238470291700e-03  -2.9285660988464784e-03  -3.0942069938859045e-03  -3.2177948886528795e-03  -3.2943045941554784e-03  -3.3195980820165468e-03  -3.2906017272815152e-03  -3.2055013552810992e-03  -3.0639564382238956e-03  -2.8673348868476691e-03  -2.6189699274340389e-03  -2.3244408181304650e-03  -1.9918786477097598e-03  -1.6323008242528879e-03  -1.2599696175679899e-03  -8.9280128002391381e-04  -5.5273690227620098e-04  -2.6641653599095459e-04  -6.4894420895099690e-05  1.2885254153696738e-05  9.8180912738324590e-06  -4.9166308804858288e-05  -2.1726754758217027e-04  -4.8174528917576401e-04  -8.2980808746772926e-04  -1.2479624170434120e-03  -1.7222760022763631e-03  -2.2384117112852261e-03  -2.7817398445560211e-03  -3.3374478850058033e-03  -3.8906710169502663e-03  -4.4266389193592624e-03  -4.9308419024133446e-03  -5.3892175604126095e-03  -5.7883597564306775e-03  -6.1157517261823729e-03  -6.3600252481891221e-03  -6.5112479460910202e-03  -6.5612409284858545e-03  -6.5039291150340763e-03  -6.3357267531343603e-03  -6.0559607840004887e-03  -5.6673349137602519e-03  -5.1764373345483785e-03  -4.5942955618581633e-03  -3.9369808462506890e-03  -3.2262692902188259e-03  -2.4903505096695944e-03  -1.7646362660871928e-03  -1.0924934718724130e-03  -5.2657660894097984e-04  -1.2826487540372480e-04  2.5467913853560010e-05  1.4435511629885790e-05  -7.2289083840900624e-05  -3.1944785396262294e-04  -7.0830871673044241e-04  -1.2200644436702011e-03  -1.8348755410823683e-03  -2.5322574221121026e-03  -3.2911302412406951e-03  -4.0899839924321080e-03  -4.9070398748404485e-03  -5.7204421947669561e-03  -6.5084741953030821e-03  -7.2498023259395979e-03  -7.9237506769355877e-03  -8.5106082477861347e-03  -8.9919716781825063e-03  -9.3511263045668071e-03  -9.5734685799521053e-03  -9.6469730996765844e-03  -9.5627076863227332e-03  -9.3154002155182089e-03  -8.9040610913866964e-03  -8.3326655696643239e-03  -7.6109002581261301e-03  -6.7549788905327942e-03  -5.7885309888052443e-03  -4.7435738981379200e-03  -3.6615547279386881e-03  -2.5945392803054740e-03  -1.6062897872260288e-03  -7.7422396390276510e-04  -1.8858745008192021e-04  3.7445395090337533e-05  1.8702980247519980e-05  -9.3659396528505959e-05  -4.1388397109096592e-04  -9.1770102617257608e-04  -1.5807434835917796e-03  -2.3773068386292160e-03  -3.2808507890962017e-03  -4.2640638022654626e-03  -5.2990770201832137e-03  -6.3576733291496783e-03  -7.4115359925092383e-03  -8.4325282844449588e-03  -9.3930099709288867e-03  -1.0266192872550635e-02  -1.1026538967811229e-02  -1.1650204442492420e-02  -1.2115533394834493e-02  -1.2403605132386655e-02  -1.2498839261881729e-02  -1.2389663046143024e-02  -1.2069245797873735e-02  -1.1536305374255184e-02  -1.0795992210962203e-02  -9.8608565049305222e-03  -8.7519051484873187e-03  -7.4997530985458239e-03  -6.1458827653403077e-03  -4.7439939735466020e-03  -3.3615443645114052e-03  -2.0811457383639390e-03  -1.0031022499499885e-03  -2.4433820692195399e-04  4.8515109009358518e-05  2.2503846456196755e-05  -1.1269309229009149e-04  -4.9799450065733317e-04  -1.1041985074788287e-03  -1.9019860952326354e-03  -2.8604290247373496e-03  -3.9475934065770395e-03  -5.1306173896598804e-03  -6.3759685371828825e-03  -7.6496953840158501e-03  -8.9177265974217570e-03  -1.0146207438677658e-02  -1.1301880559762329e-02  -1.2352513824014836e-02  -1.3267379312314313e-02  -1.4017787612654995e-02  -1.4577681856940351e-02  -1.4924296240873720e-02  -1.5038884082175063e-02  -1.4907520800287484e-02  -1.4521987556560062e-02  -1.3880741647633952e-02  -1.2989980195542396e-02  -1.1864803883584595e-02  -1.0530488682255982e-02  -9.0238712010702708e-03  -7.3948640116255687e-03  -5.7080799499552260e-03  -4.0446855624332321e-03  -2.5040812166532132e-03  -1.2069551168817686e-03  -2.9399320811684438e-04  5.8374466794128288e-05  2.5721459574168434e-05  -1.2880601649382139e-04  -5.6919804413620362e-04  -1.2620774502071113e-03  -2.1739331659710389e-03  -3.2694148136645116e-03  -4.5120225769731005e-03  -5.8641959976922144e-03  -7.2876081516782473e-03  -8.7434531742693888e-03  -1.0192788195290427e-02  -1.1596917908088240e-02  -1.2917829812471946e-02  -1.4118683204948771e-02  -1.5164356672907980e-02  -1.6022058776689656e-02  -1.6662007021756912e-02  -1.7058180534130836e-02  -1.7189152217177480e-02  -1.7039006542559347e-02  -1.6598349534731566e-02  -1.5865417912610796e-02  -1.4847294867218988e-02  -1.3561240189169098e-02  -1.2036143826020021e-02  -1.0314109311384299e-02  -8.4521857483532692e-03  -6.5242243544961871e-03  -4.6229969138622436e-03  -2.8621161113453609e-03  -1.3795262136625547e-03  -3.3602851570751910e-04  6.6720879596517555e-05  2.8239168970399567e-05  -1.4141401476270673e-04  -6.2491320414981505e-04  -1.3856141465164937e-03  -2.3867255877677955e-03  -3.5894369266998623e-03  -4.9536756125628818e-03  -6.4382046335846972e-03  -8.0009454880893456e-03  -9.5992938541048442e-03  -1.1190494994262536e-02  -1.2732065967761707e-02  -1.4182273476201620e-02  -1.5500670717529837e-02  -1.6648698470425667e-02  -1.7590355551650651e-02  -1.8292944248145964e-02  -1.8727896667013671e-02  -1.8871688347116611e-02  -1.8706845887340524e-02  -1.8223055792833329e-02  -1.7418382184267014e-02  -1.6300601580742126e-02  -1.4888663225082628e-02  -1.3214284920231419e-02  -1.1323691449306547e-02  -9.2795160907531149e-03  -7.1628388877484819e-03  -5.0755124613007423e-03  -3.1422703137493689e-03  -1.5145591904722219e-03  -3.6892019210037772e-04  7.3251758638045051e-05  2.9940323876200308e-05  -1.4993293203492794e-04  -6.6255858029629197e-04  -1.4690848818958947e-03  -2.5305042411606663e-03  -3.8056680680435308e-03  -5.2520898021287659e-03  -6.8260482740679059e-03  -8.4829301329032748e-03  -1.0177564532024711e-02  -1.1864621148844167e-02  -1.3499057831127819e-02  -1.5036627228490076e-02  -1.6434445986585278e-02  -1.7651632040961783e-02  -1.8650015462997334e-02  -1.9394928797256954e-02  -1.9856083191530965e-02  -2.0008537045499111e-02  -1.9833764339989825e-02  -1.9320830281869518e-02  -1.8467682370011222e-02  -1.7282565587375454e-02  -1.5785570697973591e-02  -1.4010326217834872e-02  -1.2005841558665050e