<?xml version="1.0"?>
<VTKFile type="UnstructuredGrid"  version="0.1"  >
<UnstructuredGrid>
<Piece  NumberOfPoints="1089" NumberOfCells="1024">
<Points>
<DataArray  type="Float64"  NumberOfComponents="3"  format="ascii">0 0 0  0.03125 0 0  0.0625 0 0  0.09375 0 0  0.125 0 0  0.15625 0 0  0.1875 0 0  0.21875 0 0  0.25 0 0  0.28125 0 0  0.3125 0 0  0.34375 0 0  0.375 0 0  0.40625 0 0  0.4375 0 0  0.46875 0 0  0.5 0 0  0.53125 0 0  0.5625 0 0  0.59375 0 0  0.625 0 0  0.65625 0 0  0.6875 0 0  0.71875 0 0  0.75 0 0  0.78125 0 0  0.8125 0 0  0.84375 0 0  0.875 0 0  0.90625 0 0  0.9375 0 0  0.96875 0 0  1 0 0  0 0.03125 0  0.03125 0.03125 0  0.0625 0.03125 0  0.09375 0.03125 0  0.125 0.03125 0  0.15625 0.03125 0  0.1875 0.03125 0  0.21875 0.03125 0  0.25 0.03125 0  0.28125 0.03125 0  0.3125 0.03125 0  0.34375 0.03125 0  0.375 0.03125 0  0.40625 0.03125 0  0.4375 0.03125 0  0.46875 0.03125 0  0.5 0.03125 0  0.53125 0.03125 0  0.5625 0.03125 0  0.59375 0.03125 0  0.625 0.03125 0  0.65625 0.03125 0  0.6875 0.03125 0  0.71875 0.03125 0  0.75 0.03125 0  0.78125 0.03125 0  0.8125 0.03125 0  0.84375 0.03125 0  0.875 0.03125 0  0.90625 0.03125 0  0.9375 0.03125 0  0.96875 0.03125 0  1 0.03125 0  0 0.0625 0  0.03125 0.0625 0  0.0625 0.0625 0  0.09375 0.0625 0  0.125 0.0625 0  0.15625 0.0625 0  0.1875 0.0625 0  0.21875 0.0625 0  0.25 0.0625 0  0.28125 0.0625 0  0.3125 0.0625 0  0.34375 0.0625 0  0.375 0.0625 0  0.40625 0.0625 0  0.4375 0.0625 0  0.46875 0.0625 0  0.5 0.0625 0  0.53125 0.0625 0  0.5625 0.0625 0  0.59375 0.0625 0  0.625 0.0625 0  0.65625 0.0625 0  0.6875 0.0625 0  0.71875 0.0625 0  0.75 0.0625 0  0.78125 0.0625 0  0.8125 0.0625 0  0.84375 0.0625 0  0.875 0.0625 0  0.90625 0.0625 0  0.9375 0.0625 0  0.96875 0.0625 0  1 0.0625 0  0 0.09375 0  0.03125 0.09375 0  0.0625 0.09375 0  0.09375 0.09375 0  0.125 0.09375 0  0.15625 0.09375 0  0.1875 0.09375 0  0.21875 0.09375 0  0.25 0.09375 0  0.28125 0.09375 0  0.3125 0.09375 0  0.34375 0.09375 0  0.375 0.09375 0  0.40625 0.09375 0  0.4375 0.09375 0  0.46875 0.09375 0  0.5 0.09375 0  0.53125 0.09375 0  0.5625 0.09375 0  0.59375 0.09375 0  0.625 0.09375 0  0.65625 0.09375 0  0.6875 0.09375 0  0.71875 0.09375 0  0.75 0.09375 0  0.78125 0.09375 0  0.8125 0.09375 0  0.84375 0.09375 0  0.875 0.09375 0  0.90625 0.09375 0  0.9375 0.09375 0  0.96875 0.09375 0  1 0.09375 0  0 0.125 0  0.03125 0.125 0  0.0625 0.125 0  0.09375 0.125 0  0.125 0.125 0  0.15625 0.125 0  0.1875 0.125 0  0.21875 0.125 0  0.25 0.125 0  0.28125 0.125 0  0.3125 0.125 0  0.34375 0.125 0  0.375 0.125 0  0.40625 0.125 0  0.4375 0.125 0  0.46875 0.125 0  0.5 0.125 0  0.53125 0.125 0  0.5625 0.125 0  0.59375 0.125 0  0.625 0.125 0  0.65625 0.125 0  0.6875 0.125 0  0.71875 0.125 0  0.75 0.125 0  0.78125 0.125 0  0.8125 0.125 0  0.84375 0.125 0  0.875 0.125 0  0.90625 0.125 0  0.9375 0.125 0  0.96875 0.125 0  1 0.125 0  0 0.15625 0  0.03125 0.15625 0  0.0625 0.15625 0  0.09375 0.15625 0  0.125 0.15625 0  0.15625 0.15625 0  0.1875 0.15625 0  0.21875 0.15625 0  0.25 0.15625 0  0.28125 0.15625 0  0.3125 0.15625 0  0.34375 0.15625 0  0.375 0.15625 0  0.40625 0.15625 0  0.4375 0.15625 0  0.46875 0.15625 0  0.5 0.15625 0  0.53125 0.15625 0  0.5625 0.15625 0  0.59375 0.15625 0  0.625 0.15625 0  0.65625 0.15625 0  0.6875 0.15625 0  0.71875 0.15625 0  0.75 0.15625 0  0.78125 0.15625 0  0.8125 0.15625 0  0.84375 0.15625 0  0.875 0.15625 0  0.90625 0.15625 0  0.9375 0.15625 0  0.96875 0.15625 0  1 0.15625 0  0 0.1875 0  0.03125 0.1875 0  0.0625 0.1875 0  0.09375 0.1875 0  0.125 0.1875 0  0.15625 0.1875 0  0.1875 0.1875 0  0.21875 0.1875 0  0.25 0.1875 0  0.28125 0.1875 0  0.3125 0.1875 0  0.34375 0.1875 0  0.375 0.1875 0  0.40625 0.1875 0  0.4375 0.1875 0  0.46875 0.1875 0  0.5 0.1875 0  0.53125 0.1875 0  0.5625 0.1875 0  0.59375 0.1875 0  0.625 0.1875 0  0.65625 0.1875 0  0.6875 0.1875 0  0.71875 0.1875 0  0.75 0.1875 0  0.78125 0.1875 0  0.8125 0.1875 0  0.84375 0.1875 0  0.875 0.1875 0  0.90625 0.1875 0  0.9375 0.1875 0  0.96875 0.1875 0  1 0.1875 0  0 0.21875 0  0.03125 0.21875 0  0.0625 0.21875 0  0.09375 0.21875 0  0.125 0.21875 0  0.15625 0.21875 0  0.1875 0.21875 0  0.21875 0.21875 0  0.25 0.21875 0  0.28125 0.21875 0  0.3125 0.21875 0  0.34375 0.21875 0  0.375 0.21875 0  0.40625 0.21875 0  0.4375 0.21875 0  0.46875 0.21875 0  0.5 0.21875 0  0.53125 0.21875 0  0.5625 0.21875 0  0.59375 0.21875 0  0.625 0.21875 0  0.65625 0.21875 0  0.6875 0.21875 0  0.71875 0.21875 0  0.75 0.21875 0  0.78125 0.21875 0  0.8125 0.21875 0  0.84375 0.21875 0  0.875 0.21875 0  0.90625 0.21875 0  0.9375 0.21875 0  0.96875 0.21875 0  1 0.21875 0  0 0.25 0  0.03125 0.25 0  0.0625 0.25 0  0.09375 0.25 0  0.125 0.25 0  0.15625 0.25 0  0.1875 0.25 0  0.21875 0.25 0  0.25 0.25 0  0.28125 0.25 0  0.3125 0.25 0  0.34375 0.25 0  0.375 0.25 0  0.40625 0.25 0  0.4375 0.25 0  0.46875 0.25 0  0.5 0.25 0  0.53125 0.25 0  0.5625 0.25 0  0.59375 0.25 0  0.625 0.25 0  0.65625 0.25 0  0.6875 0.25 0  0.71875 0.25 0  0.75 0.25 0  0.78125 0.25 0  0.8125 0.25 0  0.84375 0.25 0  0.875 0.25 0  0.90625 0.25 0  0.9375 0.25 0  0.96875 0.25 0  1 0.25 0  0 0.28125 0  0.03125 0.28125 0  0.0625 0.28125 0  0.09375 0.28125 0  0.125 0.28125 0  0.15625 0.28125 0  0.1875 0.28125 0  0.21875 0.28125 0  0.25 0.28125 0  0.28125 0.28125 0  0.3125 0.28125 0  0.34375 0.28125 0  0.375 0.28125 0  0.40625 0.28125 0  0.4375 0.28125 0  0.46875 0.28125 0  0.5 0.28125 0  0.53125 0.28125 0  0.5625 0.28125 0  0.59375 0.28125 0  0.625 0.28125 0  0.65625 0.28125 0  0.6875 0.28125 0  0.71875 0.28125 0  0.75 0.28125 0  0.78125 0.28125 0  0.8125 0.28125 0  0.84375 0.28125 0  0.875 0.28125 0  0.90625 0.28125 0  0.9375 0.28125 0  0.96875 0.28125 0  1 0.28125 0  0 0.3125 0  0.03125 0.3125 0  0.0625 0.3125 0  0.09375 0.3125 0  0.125 0.3125 0  0.15625 0.3125 0  0.1875 0.3125 0  0.21875 0.3125 0  0.25 0.3125 0  0.28125 0.3125 0  0.3125 0.3125 0  0.34375 0.3125 0  0.375 0.3125 0  0.40625 0.3125 0  0.4375 0.3125 0  0.46875 0.3125 0  0.5 0.3125 0  0.53125 0.3125 0  0.5625 0.3125 0  0.59375 0.3125 0  0.625 0.3125 0  0.65625 0.3125 0  0.6875 0.3125 0  0.71875 0.3125 0  0.75 0.3125 0  0.78125 0.3125 0  0.8125 0.3125 0  0.84375 0.3125 0  0.875 0.3125 0  0.90625 0.3125 0  0.9375 0.3125 0  0.96875 0.3125 0  1 0.3125 0  0 0.34375 0  0.03125 0.34375 0  0.0625 0.34375 0  0.09375 0.34375 0  0.125 0.34375 0  0.15625 0.34375 0  0.1875 0.34375 0  0.21875 0.34375 0  0.25 0.34375 0  0.28125 0.34375 0  0.3125 0.34375 0  0.34375 0.34375 0  0.375 0.34375 0  0.40625 0.34375 0  0.4375 0.34375 0  0.46875 0.34375 0  0.5 0.34375 0  0.53125 0.34375 0  0.5625 0.34375 0  0.59375 0.34375 0  0.625 0.34375 0  0.65625 0.34375 0  0.6875 0.34375 0  0.71875 0.34375 0  0.75 0.34375 0  0.78125 0.34375 0  0.8125 0.34375 0  0.84375 0.34375 0  0.875 0.34375 0  0.90625 0.34375 0  0.9375 0.34375 0  0.96875 0.34375 0  1 0.34375 0  0 0.375 0  0.03125 0.375 0  0.0625 0.375 0  0.09375 0.375 0  0.125 0.375 0  0.15625 0.375 0  0.1875 0.375 0  0.21875 0.375 0  0.25 0.375 0  0.28125 0.375 0  0.3125 0.375 0  0.34375 0.375 0  0.375 0.375 0  0.40625 0.375 0  0.4375 0.375 0  0.46875 0.375 0  0.5 0.375 0  0.53125 0.375 0  0.5625 0.375 0  0.59375 0.375 0  0.625 0.375 0  0.65625 0.375 0  0.6875 0.375 0  0.71875 0.375 0  0.75 0.375 0  0.78125 0.375 0  0.8125 0.375 0  0.84375 0.375 0  0.875 0.375 0  0.90625 0.375 0  0.9375 0.375 0  0.96875 0.375 0  1 0.375 0  0 0.40625 0  0.03125 0.40625 0  0.0625 0.40625 0  0.09375 0.40625 0  0.125 0.40625 0  0.15625 0.40625 0  0.1875 0.40625 0  0.21875 0.40625 0  0.25 0.40625 0  0.28125 0.40625 0  0.3125 0.40625 0  0.34375 0.40625 0  0.375 0.40625 0  0.40625 0.40625 0  0.4375 0.40625 0  0.46875 0.40625 0  0.5 0.40625 0  0.53125 0.40625 0  0.5625 0.40625 0  0.59375 0.40625 0  0.625 0.40625 0  0.65625 0.40625 0  0.6875 0.40625 0  0.71875 0.40625 0  0.75 0.40625 0  0.78125 0.40625 0  0.8125 0.40625 0  0.84375 0.40625 0  0.875 0.40625 0  0.90625 0.40625 0  0.9375 0.40625 0  0.96875 0.40625 0  1 0.40625 0  0 0.4375 0  0.03125 0.4375 0  0.0625 0.4375 0  0.09375 0.4375 0  0.125 0.4375 0  0.15625 0.4375 0  0.1875 0.4375 0  0.21875 0.4375 0  0.25 0.4375 0  0.28125 0.4375 0  0.3125 0.4375 0  0.34375 0.4375 0  0.375 0.4375 0  0.40625 0.4375 0  0.4375 0.4375 0  0.46875 0.4375 0  0.5 0.4375 0  0.53125 0.4375 0  0.5625 0.4375 0  0.59375 0.4375 0  0.625 0.4375 0  0.65625 0.4375 0  0.6875 0.4375 0  0.71875 0.4375 0  0.75 0.4375 0  0.78125 0.4375 0  0.8125 0.4375 0  0.84375 0.4375 0  0.875 0.4375 0  0.90625 0.4375 0  0.9375 0.4375 0  0.96875 0.4375 0  1 0.4375 0  0 0.46875 0  0.03125 0.46875 0  0.0625 0.46875 0  0.09375 0.46875 0  0.125 0.46875 0  0.15625 0.46875 0  0.1875 0.46875 0  0.21875 0.46875 0  0.25 0.46875 0  0.28125 0.46875 0  0.3125 0.46875 0  0.34375 0.46875 0  0.375 0.46875 0  0.40625 0.46875 0  0.4375 0.46875 0  0.46875 0.46875 0  0.5 0.46875 0  0.53125 0.46875 0  0.5625 0.46875 0  0.59375 0.46875 0  0.625 0.46875 0  0.65625 0.46875 0  0.6875 0.46875 0  0.71875 0.46875 0  0.75 0.46875 0  0.78125 0.46875 0  0.8125 0.46875 0  0.84375 0.46875 0  0.875 0.46875 0  0.90625 0.46875 0  0.9375 0.46875 0  0.96875 0.46875 0  1 0.46875 0  0 0.5 0  0.03125 0.5 0  0.0625 0.5 0  0.09375 0.5 0  0.125 0.5 0  0.15625 0.5 0  0.1875 0.5 0  0.21875 0.5 0  0.25 0.5 0  0.28125 0.5 0  0.3125 0.5 0  0.34375 0.5 0  0.375 0.5 0  0.40625 0.5 0  0.4375 0.5 0  0.46875 0.5 0  0.5 0.5 0  0.53125 0.5 0  0.5625 0.5 0  0.59375 0.5 0  0.625 0.5 0  0.65625 0.5 0  0.6875 0.5 0  0.71875 0.5 0  0.75 0.5 0  0.78125 0.5 0  0.8125 0.5 0  0.84375 0.5 0  0.875 0.5 0  0.90625 0.5 0  0.9375 0.5 0  0.96875 0.5 0  1 0.5 0  0 0.53125 0  0.03125 0.53125 0  0.0625 0.53125 0  0.09375 0.53125 0  0.125 0.53125 0  0.15625 0.53125 0  0.1875 0.53125 0  0.21875 0.53125 0  0.25 0.53125 0  0.28125 0.53125 0  0.3125 0.53125 0  0.34375 0.53125 0  0.375 0.53125 0  0.40625 0.53125 0  0.4375 0.53125 0  0.46875 0.53125 0  0.5 0.53125 0  0.53125 0.53125 0  0.5625 0.53125 0  0.59375 0.53125 0  0.625 0.53125 0  0.65625 0.53125 0  0.6875 0.53125 0  0.71875 0.53125 0  0.75 0.53125 0  0.78125 0.531
[...]
<PointData  Scalars="v_sol"> 
<DataArray  type="Float64"  Name="v_sol"  format="ascii">7.7107420883362063e-08  9.3430281724319642e-06  1.7643311379531819e-05  2.4924025407760115e-05  3.1138585152379404e-05  3.6245032167603965e-05  4.0207961493069221e-05  4.2999315069792426e-05  4.4599597601709333e-05  4.4999106721354133e-05  4.4199295658187977e-05  4.2214246237633459e-05  3.9072268199635577e-05  3.4817631198543332e-05  2.9512439076486098e-05  2.3238655797505652e-05  1.6100293206724916e-05  8.2257713060884412e-06  -2.2953759449663435e-07  -9.0805688708830961e-06  -1.8109616970141018e-05  -2.7063164861386527e-05  -3.5648477038792476e-05  -4.3529941972555068e-05  -5.0325145013045202e-05  -5.5600666078954318e-05  -5.8867543634893088e-05  -5.9576537511671776e-05  -5.7112606628792099e-05  -5.0790687714435414e-05  -3.9844881194054906e-05  -2.3440429470186735e-05  -5.9862600848809901e-07  -3.8712977417153007e-07  -4.6908072176663442e-05  -8.8580887382556835e-05  -1.2513480294299052e-04  -1.5633593077557509e-04  -1.8197361314438695e-04  -2.0187009339750489e-04  -2.1588450228666591e-04  -2.2391896050041497e-04  -2.2592475597409256e-04  -2.2190918478526389e-04  -2.1194294687722033e-04  -1.9616817551474340e-04  -1.7480713313629116e-04  -1.4817162137658075e-04  -1.1667315260332535e-04  -8.0833933863847218e-05  -4.1298717035744043e-05  1.1524279352442066e-06  4.5590356327585177e-05  9.0922044867734997e-05  1.3587467316770766e-04  1.7897851905372819e-04  2.1854859402280734e-04  2.5266492910733284e-04  2.7915147187592071e-04  2.9555332153077720e-04  2.9911292845070762e-04  2.8674239947904640e-04  2.5500225105102377e-04  2.0004719557738886e-04  1.1768619017988593e-04  3.0054885369658062e-06  -1.6487936361488597e-06  -1.9978271158067683e-04  -3.7726832567046346e-04  -5.3295241001597002e-04  -6.6583883357821847e-04  -7.7503039425652555e-04  -8.5977002578324462e-04  -9.1945776043558065e-04  -9.5367672883658059e-04  -9.6221946452186265e-04  -9.4511704191796008e-04  -9.0267057374266552e-04  -8.3548540928407523e-04  -7.4450816999584255e-04  -6.3106682719376553e-04  -4.9691402281304940e-04  -3.4427385037007706e-04  -1.7589232496155216e-04  4.9082150824101665e-06  1.9417051826617441e-04  3.8723936976120033e-04  5.7869379473831251e-04  7.6227420709727549e-04  9.3080419829908942e-04  1.0761065662033232e-03  1.1889134533852657e-03  1.2587693574131402e-03  1.2739298315926383e-03  1.2212434006719623e-03  1.0860613167649464e-03  8.5200625303792339e-04  5.0122855204872839e-04  1.2800467720850233e-05  -3.5363574715013005e-06  -4.2849709114506796e-04  -8.0917101864337452e-04  -1.1430846819818511e-03  -1.4281015662177790e-03  -1.6622973359492507e-03  -1.8440482253450157e-03  -1.9720674138194627e-03  -2.0454607938689084e-03  -2.0637833880550139e-03  -2.0271018452599414e-03  -1.9360619965700402e-03  -1.7919622044502198e-03  -1.5968327972791280e-03  -1.3535220286695752e-03  -1.0657889925032903e-03  -7.3840395943024640e-04  -3.7725662565481330e-04  1.0527205616327974e-05  4.1645995959360189e-04  8.3055705888847287e-04  1.2411915121001464e-03  1.6349376609830547e-03  1.9964034322063956e-03  2.3080502334081685e-03  2.5500002195340478e-03  2.6998282605316865e-03  2.7323446907645951e-03  2.6193420013361805e-03  2.3294013658698913e-03  1.8273963704591892e-03  1.0750428430951766e-03  2.7454647257152387e-05  -5.8986568791073605e-06  -7.1473475103395851e-04  -1.3497002868392716e-03  -1.9066695260757250e-03  -2.3820787551601520e-03  -2.7727181743417663e-03  -3.0758793373367806e-03  -3.2894158225859303e-03  -3.4118362558358444e-03  -3.4423984130062895e-03  -3.3812134645833753e-03  -3.2293586589651050e-03  -2.9889996693234877e-03  -2.6635230907491791e-03  -2.2576798207887875e-03  -1.7777400420584941e-03  -1.2316605838512448e-03  -6.2926548141382813e-04  1.7559399039364749e-05  6.9465675140296989e-04  1.3853722637380194e-03  2.0703120714531250e-03  2.7270821265452752e-03  3.3300083931913668e-03  3.8498364325028752e-03  4.2534099244485443e-03  4.5033236643836714e-03  4.5575611995999797e-03  4.3690722882141703e-03  3.8854502304506151e-03  3.0481039983019250e-03  1.7931754828908256e-03  4.5794456120220067e-05  -8.5934480397103388e-06  -1.0412601346397991e-03  -1.9663086212955688e-03  -2.7777283319341092e-03  -3.4703274771574048e-03  -4.0394298650314256e-03  -4.4810897010579380e-03  -4.7921799748351880e-03  -4.9705279806885501e-03  -5.0150524107629626e-03  -4.9259152234960796e-03  -4.7046858061359220e-03  -4.3545192156892445e-03  -3.8803492072451737e-03  -3.2890971177370943e-03  -2.5898976521048400e-03  -1.7943427037151397e-03  -9.1674440174820864e-04  2.5581349759537523e-05  1.0120095035217069e-03  2.0182772535340425e-03  3.0161306809605107e-03  3.9729450543088407e-03  4.8513171967645343e-03  5.6086278262153849e-03  6.1965732115917566e-03  6.5606596393695885e-03  6.6396755110438533e-03  6.3650757526682606e-03  5.6605117618752192e-03  4.4406252742756622e-03  2.6123847322987097e-03  6.6715578566644654e-05  -1.1490473635458194e-05  -1.3922900831597512e-03  -2.6291912110169113e-03  -3.7141569926403928e-03  -4.6402453814874305e-03  -5.4012037461607203e-03  -5.9917560856162858e-03  -6.4077212111976253e-03  -6.6461939545654431e-03  -6.7057284772373479e-03  -6.5865413371413092e-03  -6.2907309936163607e-03  -5.8225161371083895e-03  -5.1884937913272127e-03  -4.3979186160303619e-03  -3.4630048102950906e-03  -2.3992521297240949e-03  -1.2257976123968201e-03  3.4205295335580294e-05  1.3531784245226618e-03  2.6986794850183977e-03  4.0329295883047072e-03  5.3123055427717171e-03  6.4867947997811525e-03  7.4994102491766365e-03  8.2855639886063055e-03  8.7723913628599062e-03  8.8780450996153795e-03  8.5108721820150220e-03  7.5687853504658835e-03  5.9376503206354505e-03  3.4930727229841754e-03  8.9206756935821151e-05  -1.4470641432421072e-05  -1.7533942939350019e-03  -3.3110979693757644e-03  -4.6774603617251902e-03  -5.8437389364322835e-03  -6.8020593804065015e-03  -7.5457773105084593e-03  -8.0696271061473073e-03  -8.3699501155819738e-03  -8.4449255082830171e-03  -8.2948260088397639e-03  -7.9222943326977564e-03  -7.3326433290541145e-03  -6.5341810243921099e-03  -5.5385623652459059e-03  -4.3611694231014218e-03  -3.0215219674173178e-03  -1.5437204152276552e-03  4.3076712942884530e-05  1.7041385782260797e-03  3.3986086621978118e-03  5.0789097478154211e-03  6.6901045361935042e-03  8.1692092275330863e-03  9.4444565379785683e-03  1.0434507050683432e-02  1.1047597937477536e-02  1.1180654024958690e-02  1.0718251175497765e-02  9.5318247941894533e-03  7.4776387319470238e-03  4.3990357209309572e-03  1.1234341315705434e-04  -1.7426244332230506e-05  -2.1115219924778420e-03  -3.9873839013841034e-03  -5.6328234051822943e-03  -7.0373123224816096e-03  -8.1913680259507946e-03  -9.0869890299530437e-03  -9.7178342210961430e-03  -1.0079497675467446e-02  -1.0169786661891434e-02  -9.9890296090029557e-03  -9.5404090023714101e-03  -8.8303228310059548e-03  -7.8687760204231606e-03  -6.6698040182661313e-03  -5.2519306554447837e-03  -3.6386625780974427e-03  -1.8590226690581406e-03  5.1874976435012616e-05  2.0522058081033118e-03  4.0927684360406577e-03  6.1162680798245422e-03  8.0565465922600513e-03  9.8377558406112422e-03  1.1373470196128091e-02  1.2565736805883463e-02  1.3304050442113129e-02  1.3464283007636963e-02  1.2907435185449973e-02  1.1478683293446418e-02  9.0049333223974765e-03  5.2975310434578912e-03  1.3528935829996942e-04  -2.0260901412587581e-05  -2.4549947854868586e-03  -4.6359956075228111e-03  -6.5490921360472102e-03  -8.1820436132327111e-03  -9.5238249113983910e-03  -1.0565132976539158e-02  -1.1298595212983421e-02  -1.1719089004166279e-02  -1.1824064937296912e-02  -1.1613904866078981e-02  -1.1092308958664886e-02  -1.0266715939054802e-02  -9.1487581928900562e-03  -7.7547542560240318e-03  -6.1062411541954421e-03  -4.2305492624921393e-03  -2.1614224967147462e-03  6.0313181471980201e-05  2.3860297917289329e-03  4.7585225519811364e-03  7.1111767689051014e-03  9.3670726128157588e-03  1.1438024036562340e-02  1.3223546897833751e-02  1.4609754743446316e-02  1.5468166901748247e-02  1.5654463856566249e-02  1.5007035830307214e-02  1.3345874599802703e-02  1.0469729647968140e-02  6.1592591298047271e-03  1.5729633447275347e-04  -2.2889573702335879e-05  -2.7735085755839243e-03  -5.2374748995560909e-03  -7.3987787223901797e-03  -9.2435911570958196e-03  -1.0759456664104437e-02  -1.1935865201857786e-02  -1.2764487647110958e-02  -1.3239536770791862e-02  -1.3358132397945656e-02  -1.3120705925722776e-02  -1.2531437587064612e-02  -1.1598731214423411e-02  -1.0335728391287427e-02  -8.7608648367244347e-03  -6.8984718115608435e-03  -4.7794255611398233e-03  -2.4418479715796076e-03  6.8138191802344505e-05  2.6955959009847623e-03  5.3758985605514087e-03  8.0337888095560386e-03  1.0582367149236504e-02  1.2922006170890250e-02  1.4939184802074609e-02  1.6505240829686140e-02  1.7475024353310754e-02  1.7685491680852056e-02  1.6954065601517229e-02  1.5077383427619297e-02  1.1828084174403538e-02  6.9583683463922876e-03  1.7770413771858666e-04  -2.5238559949989193e-05  -3.0581330479324520e-03  -5.7749578311098769e-03  -8.1580601178707496e-03  -1.0192191866410381e-02  -1.1863619318763580e-02  -1.3160753867415340e-02  -1.4074411634794835e-02  -1.4598211493491227e-02  -1.4728977699585831e-02  -1.4467185923031511e-02  -1.3817445384034337e-02  -1.2789022337840822e-02  -1.1396406989497723e-02  -9.6599269759105860e-03  -7.6064104900619555e-03  -5.2699023717515392e-03  -2.6924366677381043e-03  7.5130624504284095e-05  2.9722247010710995e-03  5.9275868205570315e-03  8.8582365178828965e-03  1.1668356443072129e-02  1.4248095165488001e-02  1.6472281788654217e-02  1.8199050455093992e-02  1.9268355614169064e-02  1.9500421619773875e-02  1.8693934729225668e-02  1.6624662666705297e-02  1.3041912090673647e-02  7.6724537005357094e-03  1.9594058508956900e-04  -2.7245497749379841e-05  -3.3013118074988346e-03  -6.2341749568604098e-03  -8.8067784278585831e-03  -1.1002661674826867e-02  -1.2806998849781173e-02  -1.4207279835230797e-02  -1.5193590465024578e-02  -1.5759042194733654e-02  -1.5900206751611121e-02  -1.5617597632390507e-02  -1.4916190578013334e-02  -1.3805988684747757e-02  -1.2302634398894334e-02  -1.0428071782043117e-02  -8.2112623663381061e-03  -5.6889581884786962e-03  -2.9065357837801684e-03  8.1104850351789541e-05  3.2085720810768417e-03  6.3989407627237024e-03  9.5626319274925708e-03  1.2596208949019994e-02  1.5381085148551236e-02  1.7782136199144136e-02  1.9646215253950310e-02  2.0800550150603458e-02  2.1051069722238740e-02  2.0180452025474121e-02  1.7946634132213223e-02  1.4078987897075887e-02  8.2825571862774686e-03  2.1152152350136329e-04  -2.8859363238085934e-05  -3.4968623420485326e-03  -6.6034512626277483e-03  -9.3284408106218339e-03  -1.1654395413791251e-02  -1.3565611027448007e-02  -1.5048836508260820e-02  -1.6093570433834855e-02  -1.6692516224416854e-02  -1.6842042538742663e-02  -1.6542693292570892e-02  -1.5799738962711047e-02  -1.4623775171448002e-02  -1.3031370931813608e-02  -1.1045770141477954e-02  -8.6976498414477327e-03  -6.0259390408847818e-03  -3.0787021132198970e-03  8.5908989845716248e-05  3.3986292151413230e-03  6.7779768155653347e-03  1.0129066680638038e-02  1.3342335193047302e-02  1.6292171282607990e-02  1.8835446639172533e-02  2.0809942886754137e-02  2.2032653848089074e-02  2.2298012714591690e-02  2.1375824661684646e-02  1.9009688366540455e-02  1.4912945249582027e-02  8.7731676926358481e-03  2.2405082733840582e-04  -3.0040471179879744e-05  -3.6399760319559779e-03  -6.8737061838538543e-03  -9.7102195033650085e-03  -1.2131366844998917e-02  -1.4120801455644670e-02  -1.5664729872174439e-02  -1.6752220888963772e-02  -1.7375679306220818e-02  -1.7531325167891951e-02  -1.7219724652926361e-02  -1.6446363941479237e-02  -1.5222272296520501e-02  -1.3564696838898478e-02  -1.1497832750669346e-02  -9.0536125668993824e-03  -6.2725585128303165e-03  -3.2047020553432996e-03  8.9424911181653800e-05  3.5377225698587748e-03  7.0553744226257405e-03  1.0543612055422771e-02  1.3888387809326594e-02  1.6958949810539393e-02  1.9606312032370597e-02  2.1661617100392973e-02  2.2934369075338266e-02  2.3210588065559274e-02  2.2250658230807928e-02  1.9787684694375810e-02  1.5523277002746194e-02  9.1322210286598100e-03  2.3322039907552975e-04  -3.0760474947915046e-05  -3.7272181476100913e-03  -7.0384536006622769e-03  -9.9429518151956664e-03  -1.2422128651544654e-02  -1.4459245561472937e-02  -1.6040178483787693e-02  -1.7153734217431434e-02  -1.7792135524690764e-02  -1.7951511855123451e-02  -1.7632442960622278e-02  -1.6840546515196477e-02  -1.5587116129739759e-02  -1.3889812299413794e-02  -1.1773410108199349e-02  -9.2706074386635327e-03  -6.4228977386727778e-03  -3.2815116137319350e-03  9.1568229334502033e-05  3.6225139009625059e-03  7.2244760368112837e-03  1.0796318957872772e-02  1.4221261530185852e-02  1.7365418043592786e-02  2.0076231606705242e-02  2.2180797713122584e-02  2.3484054668386947e-02  2.3766893970029415e-02  2.2783956731607987e-02  2.0261951208516857e-02  1.5895335198406982e-02  9.3510999166719032e-03  2.3881016908006622e-04  -3.1002366535615477e-05  -3.7565278502843932e-03  -7.0938018394697136e-03  -1.0021140129372009e-02  -1.2519812440695818e-02  -1.4572948598437522e-02  -1.6166313474529251e-02  -1.7288625849162739e-02  -1.7932047328893860e-02  -1.8092676929231929e-02  -1.7771098964030809e-02  -1.6972975285393370e-02  -1.5709688314851623e-02  -1.3999037423599932e-02  -1.1865992516636586e-02  -9.3435085984617961e-03  -6.4734054039099010e-03  -3.3073163961913122e-03  9.2288306893181151e-05  3.6510002549386754e-03  7.2812871227486272e-03  1.0881217924953588e-02  1.4333093189646744e-02  1.7501974365266980e-02  2.0234104898524039e-02  2.2355220618600145e-02  2.3668725934466471e-02  2.3953789352659630e-02  2.2963122571914543e-02  2.0421284772660458e-02  1.6020331067845540e-02  9.4246339935346053e-03  2.4068809564550445e-04  -3.0760476561191426e-05  -3.7272181921879357e-03  -7.0384536730659746e-03  -9.9429519034125082e-03  -1.2422128744025381e-02  -1.4459245646577693e-02  -1.6040178550527941e-02  -1.7153734256977672e-02  -1.7792135532253377e-02  -1.7951511831370073e-02  -1.7632442912114275e-02  -1.6840546453368809e-02  -1.5587116068417865e-02  -1.3889812251249816e-02  -1.1773410080862436e-02  -9.2706074318651254e-03  -6.4228977430876707e-03  -3.2815116125265633e-03  9.1568256328652519e-05  3.6225139712047672e-03  7.2244761586988662e-03  1.0796319126004738e-02  1.4221261724155734e-02  1.7365418231145967e-02  2.0076231751372992e-02  2.2180797783697748e-02  2.3484054648989457e-02  2.3766893864356809e-02  2.2783956565041893e-02  2.0261951018220641e-02  1.5895335029410946e-02  9.3510998093523541e-03  2.3881016496843854e-04  -3.0040474273883039e-05  -3.6399761168207498e-03  -6.8737063212774624e-03  -9.7102196700472165e-03  -1.2131367018615769e-02  -1.4120801613861396e-02  -1.5664729994107014e-02  -1.6752220958073064e-02  -1.7375679313900983e-02  -1.7531325116154284e-02  -1.7219724555183454e-02  -1.6446363820518395e-02  -1.5222272179651383e-02  -1.3564696751011350e-02  -1.1497832706817191e-02  -9.0536125664865321e-03  -6.2725585374683104e-03  -3.2047020717559487e-03  8.9424943111229198e-05  3.5377226853751855e-03  7.0553746397237146e-03  1.0543612365515717e-02  1.3888388174664276e-02  1.6958950170015995e-02  1.9606312315988791e-02  2.1661617247363173e-02  2.2934369053463695e-02  2.3210587879617918e-02  2.2250657927033783e-02  1.9787684341955079e-02  1.5523276686864776e-02  9.1322208266546440e-03  2.3322039115277105e-04  -2.8859367559708285e-05  -3.4968624591994908e-03  -6.6034514513873040e-03  -9.3284410378255932e-03  -1.1654395647834104e-02  -1.3565611237081276e-02  -1.5048836664725906e-02  -1.6093570514916073e-02  -1.6692516219417732e-02  -1.6842042452155762e-02  -1.6542693145052682e-02  -1.5799738788086871e-02  -1.4623775009720126e-02  -1.3031370819215488e-02  -1.1045770099845824e-02  -8.6976498698570787e-03  -6.0259391124795570e-03  -3.0787021792131144e-03  8.5908988825874878e-05  3.3986293324035815e-03  6.7779770806080455e-03  1.0129067085535993e-02  1.3342335688226643e-02  1.6292171784395602e-02  1.8835447049609773e-02  2.0809943118725572e-02  2.2032653852611744e-02  2.2298012493057830e-02  2.1375824273133805e-02  1.9009687902891481e-02  1.4912944827175645e-02  8.7731674192580347e-03  2.2405081620206616e-04  -2.7245502948099008e-05  -3.3013119462949234e-03  -6.2341751789462439e-03  -8.8067786922611854e-03  -1.1002661942760136e-02  -1.2806999083495595e-02  -1.4207280000744563e-02  -1.5193590537028661e-02  -1.5759042162532173e-02  -1.5900206623410493e-02  -1.5617597436274305e-02  -1.4916190358054983e-02  -1.3805988492231544e-02  -1.2302634279916527e-02  -1.0428071764264892e-02  -8.2112624485030407e-03  -5.6889583363008388e-03  -2.9065359346687513e-03  8.1104773450527557e-05  3.2085721491468657e-03  6.3989410185397297e-03  9.5626323682559931e-03  1.2596209520240717e-02  1.5381085752210030e-02  1.7782136716920607e-02  1.9646215577257705e-02  2.0800550213833629e-02  2.1051069518395759e-02  2.0180451616594694e-02  1.7946633621272155e-02  1.4078987419801348e-02  8.2825568719378847e-03  2.1152151002347075e-04  -2.5238565611706635e-05  -3.0581331964802793e-03  -5.7749580667044789e-03  -8.1580603942962831e-03  -1.0192192140236381e-02  -1.1863619548515118e-02  -1.3160754016796438e-02  -1.4074411678098432e-02  -1.4598211422026487e-02  -1.4728977526188503e-02  -1.4467185682850081e-02  -1.3817445129884217e-02  -1.2789022130105750e-02  -1.1396406881988614e-02  -9.6599270007670414e-03  -7.6064106457281698e-03  -5.2699026180772586e-03  -2.6924369310172116e-03  7.5130436158117307e-05  2.9722246746120835e-03  5.9275870127425230e-03  8.8582369349491132e-03  1.1668357032618497e-02  1.4248095824119580e-02  1.6472282386517198e-02  1.8199050868426318e-02  1.9268355762202701e-02  1.9500421483063107e-02  1.8693934363300208e-02  1.6624662173647310e-02  1.3041911612808429e-02  7.6724533781343321e-03  1.9594057036401074e-04  -2.2889579391303852e-05  -2.7735087222275421e-03  -5.2374751296626713e-03  -7.3987789873867869e-03  -9.2435914116600661e-03  -1.0759456865872928e-02  -1.1935865315010787e-02  -1.2764487647930423e-02  -1.3239536654103519e-02  -1.3358132181472424e-02  -1.3120705650526971e-02  -1.2531437312345673e-02  -1.1598731006661703e-02  -1.0335728309195113e-02  -8.7608649151966582e-03  -6.8984720488127231e-03  -4.7794259132553614e-03  -2.4418483574671656e-03  6.8137874534669523e-05  2.6955957518003558e-03  5.3758986490936014e-03  8.0337891534139564e-03  1.0582367703979158e-02  1.2922006836255428e-02  1.4939185445811239e-02  1.6505241320241729e-02  1.7475024597957887e-02  1.7685491645796188e-02  1.6954065328431540e-02  1.5077383007493212e-02  1.1828083744142593e-02  6.9583680464610585e-03  1.7770412296140583e-04  -2.0260906717716309e-05  -2.4549949201724927e-03  -4.6359958162716271e-03  -6.5490923708800344e-03  -8.1820438296488860e-03  -9.5238250687563978e-03  -1.0565133041846310e-02  -1.1298595166272860e-02  -1.1719088844532202e-02  -1.1824064686771284e-02  -1.1613904569639203e-02  -1.1092308678734442e-02  -1.0266715744510406e-02  -9.1487581440019144e-03  -7.7547543884284162e-03  -6.1062414659698340e-03  -4.2305497084700336e-03  -2.1614229930177042e-03  6.0312742065100592e-05  2.3860295159395242e-03  4.7585225191313241e-03  7.1111770080379529e-03  9.3670730913208659e-03  1.1438024664325551e-02  1.3223547548723976e-02  1.4609755286018196e-02  1.5468167236253244e-02  1.5654463935749614e-02  1.5007035678011075e-02  1.3345874288950597e-02  1.0469729300355449e-02  6.1592588762377299e-03  1.5729632087601767e-04  -1.7426248912931860e-05  -2.1115221077956320e-03  -3.9873840776643386e-03  -5.6328235977622558e-03  -7.0373124900987641e-03  -8.1913681318282784e-03  -9.0869890456214721e-03  -9.7178341313113904e-03  -1.0079497483502547e-02  -1.0169786392707974e-02  -9.9890293088063884e-03  -9.5404087331124026e-03  -8.8303226598769637e-03  -7.8687760056656147e-03  -6.6698041941184172e-03  -5.2519310199379485e-03  -3.6386630875016534e-03  -1.8590232417545754e-03  5.1874445979133965e-05  2.