<?xml version="1.0"?>
<VTKFile type="UnstructuredGrid"  version="0.1"  >
<UnstructuredGrid>
<Piece  NumberOfPoints="16641" NumberOfCells="16384">
<Points>
<DataArray  type="Float64"  NumberOfComponents="3"  format="ascii">0 0 0  0.0078125 0 0  0.015625 0 0  0.0234375 0 0  0.03125 0 0  0.0390625 0 0  0.046875 0 0  0.0546875 0 0  0.0625 0 0  0.0703125 0 0  0.078125 0 0  0.0859375 0 0  0.09375 0 0  0.1015625 0 0  0.109375 0 0  0.1171875 0 0  0.125 0 0  0.1328125 0 0  0.140625 0 0  0.1484375 0 0  0.15625 0 0  0.1640625 0 0  0.171875 0 0  0.1796875 0 0  0.1875 0 0  0.1953125 0 0  0.203125 0 0  0.2109375 0 0  0.21875 0 0  0.2265625 0 0  0.234375 0 0  0.2421875 0 0  0.25 0 0  0.2578125 0 0  0.265625 0 0  0.2734375 0 0  0.28125 0 0  0.2890625 0 0  0.296875 0 0  0.3046875 0 0  0.3125 0 0  0.3203125 0 0  0.328125 0 0  0.3359375 0 0  0.34375 0 0  0.3515625 0 0  0.359375 0 0  0.3671875 0 0  0.375 0 0  0.3828125 0 0  0.390625 0 0  0.3984375 0 0  0.40625 0 0  0.4140625 0 0  0.421875 0 0  0.4296875 0 0  0.4375 0 0  0.4453125 0 0  0.453125 0 0  0.4609375 0 0  0.46875 0 0  0.4765625 0 0  0.484375 0 0  0.4921875 0 0  0.5 0 0  0.5078125 0 0  0.515625 0 0  0.5234375 0 0  0.53125 0 0  0.5390625 0 0  0.546875 0 0  0.5546875 0 0  0.5625 0 0  0.5703125 0 0  0.578125 0 0  0.5859375 0 0  0.59375 0 0  0.6015625 0 0  0.609375 0 0  0.6171875 0 0  0.625 0 0  0.6328125 0 0  0.640625 0 0  0.6484375 0 0  0.65625 0 0  0.6640625 0 0  0.671875 0 0  0.6796875 0 0  0.6875 0 0  0.6953125 0 0  0.703125 0 0  0.7109375 0 0  0.71875 0 0  0.7265625 0 0  0.734375 0 0  0.7421875 0 0  0.75 0 0  0.7578125 0 0  0.765625 0 0  0.7734375 0 0  0.78125 0 0  0.7890625 0 0  0.796875 0 0  0.8046875 0 0  0.8125 0 0  0.8203125 0 0  0.828125 0 0  0.8359375 0 0  0.84375 0 0  0.8515625 0 0  0.859375 0 0  0.8671875 0 0  0.875 0 0  0.8828125 0 0  0.890625 0 0  0.8984375 0 0  0.90625 0 0  0.9140625 0 0  0.921875 0 0  0.9296875 0 0  0.9375 0 0  0.9453125 0 0  0.953125 0 0  0.9609375 0 0  0.96875 0 0  0.9765625 0 0  0.984375 0 0  0.9921875 0 0  1 0 0  0 0.0078125 0  0.0078125 0.0078125 0  0.015625 0.0078125 0  0.0234375 0.0078125 0  0.03125 0.0078125 0  0.0390625 0.0078125 0  0.046875 0.0078125 0  0.0546875 0.0078125 0  0.0625 0.0078125 0  0.0703125 0.0078125 0  0.078125 0.0078125 0  0.0859375 0.0078125 0  0.09375 0.0078125 0  0.1015625 0.0078125 0  0.109375 0.0078125 0  0.1171875 0.0078125 0  0.125 0.0078125 0  0.1328125 0.0078125 0  0.140625 0.0078125 0  0.1484375 0.0078125 0  0.15625 0.0078125 0  0.1640625 0.0078125 0  0.171875 0.0078125 0  0.1796875 0.0078125 0  0.1875 0.0078125 0  0.1953125 0.0078125 0  0.203125 0.0078125 0  0.2109375 0.0078125 0  0.21875 0.0078125 0  0.2265625 0.0078125 0  0.234375 0.0078125 0  0.2421875 0.0078125 0  0.25 0.0078125 0  0.2578125 0.0078125 0  0.265625 0.0078125 0  0.2734375 0.0078125 0  0.28125 0.0078125 0  0.2890625 0.0078125 0  0.296875 0.0078125 0  0.3046875 0.0078125 0  0.3125 0.0078125 0  0.3203125 0.0078125 0  0.328125 0.0078125 0  0.3359375 0.0078125 0  0.34375 0.0078125 0  0.3515625 0.0078125 0  0.359375 0.0078125 0  0.3671875 0.0078125 0  0.375 0.0078125 0  0.3828125 0.0078125 0  0.390625 0.0078125 0  0.3984375 0.0078125 0  0.40625 0.0078125 0  0.4140625 0.0078125 0  0.421875 0.0078125 0  0.4296875 0.0078125 0  0.4375 0.0078125 0  0.4453125 0.0078125 0  0.453125 0.0078125 0  0.4609375 0.0078125 0  0.46875 0.0078125 0  0.4765625 0.0078125 0  0.484375 0.0078125 0  0.4921875 0.0078125 0  0.5 0.0078125 0  0.5078125 0.0078125 0  0.515625 0.0078125 0  0.5234375 0.0078125 0  0.53125 0.0078125 0  0.5390625 0.0078125 0  0.546875 0.0078125 0  0.5546875 0.0078125 0  0.5625 0.0078125 0  0.5703125 0.0078125 0  0.578125 0.0078125 0  0.5859375 0.0078125 0  0.59375 0.0078125 0  0.6015625 0.0078125 0  0.609375 0.0078125 0  0.6171875 0.0078125 0  0.625 0.0078125 0  0.6328125 0.0078125 0  0.640625 0.0078125 0  0.6484375 0.0078125 0  0.65625 0.0078125 0  0.6640625 0.0078125 0  0.671875 0.0078125 0  0.6796875 0.0078125 0  0.6875 0.0078125 0  0.6953125 0.0078125 0  0.703125 0.0078125 0  0.7109375 0.0078125 0  0.71875 0.0078125 0  0.7265625 0.0078125 0  0.734375 0.0078125 0  0.7421875 0.0078125 0  0.75 0.0078125 0  0.7578125 0.0078125 0  0.765625 0.0078125 0  0.7734375 0.0078125 0  0.78125 0.0078125 0  0.7890625 0.0078125 0  0.796875 0.0078125 0  0.8046875 0.0078125 0  0.8125 0.0078125 0  0.8203125 0.0078125 0  0.828125 0.0078125 0  0.8359375 0.0078125 0  0.84375 0.0078125 0  0.8515625 0.0078125 0  0.859375 0.0078125 0  0.8671875 0.0078125 0  0.875 0.0078125 0  0.8828125 0.0078125 0  0.890625 0.0078125 0  0.8984375 0.0078125 0  0.90625 0.0078125 0  0.9140625 0.0078125 0  0.921875 0.0078125 0  0.9296875 0.0078125 0  0.9375 0.0078125 0  0.9453125 0.0078125 0  0.953125 0.0078125 0  0.9609375 0.0078125 0  0.96875 0.0078125 0  0.9765625 0.0078125 0  0.984375 0.0078125 0  0.9921875 0.0078125 0  1 0.0078125 0  0 0.015625 0  0.0078125 0.015625 0  0.015625 0.015625 0  0.0234375 0.015625 0  0.03125 0.015625 0  0.0390625 0.015625 0  0.046875 0.015625 0  0.0546875 0.015625 0  0.0625 0.015625 0  0.0703125 0.015625 0  0.078125 0.015625 0  0.0859375 0.015625 0  0.09375 0.015625 0  0.1015625 0.015625 0  0.109375 0.015625 0  0.1171875 0.015625 0  0.125 0.015625 0  0.1328125 0.015625 0  0.140625 0.015625 0  0.1484375 0.015625 0  0.15625 0.015625 0  0.1640625 0.015625 0  0.171875 0.015625 0  0.1796875 0.015625 0  0.1875 0.015625 0  0.1953125 0.015625 0  0.203125 0.015625 0  0.2109375 0.015625 0  0.21875 0.015625 0  0.2265625 0.015625 0  0.234375 0.015625 0  0.2421875 0.015625 0  0.25 0.015625 0  0.2578125 0.015625 0  0.265625 0.015625 0  0.2734375 0.015625 0  0.28125 0.015625 0  0.2890625 0.015625 0  0.296875 0.015625 0  0.3046875 0.015625 0  0.3125 0.015625 0  0.3203125 0.015625 0  0.328125 0.015625 0  0.3359375 0.015625 0  0.34375 0.015625 0  0.3515625 0.015625 0  0.359375 0.015625 0  0.3671875 0.015625 0  0.375 0.015625 0  0.3828125 0.015625 0  0.390625 0.015625 0  0.3984375 0.015625 0  0.40625 0.015625 0  0.4140625 0.015625 0  0.421875 0.015625 0  0.4296875 0.015625 0  0.4375 0.015625 0  0.4453125 0.015625 0  0.453125 0.015625 0  0.4609375 0.015625 0  0.46875 0.015625 0  0.4765625 0.015625 0  0.484375 0.015625 0  0.4921875 0.015625 0  0.5 0.015625 0  0.5078125 0.015625 0  0.515625 0.015625 0  0.5234375 0.015625 0  0.53125 0.015625 0  0.5390625 0.015625 0  0.546875 0.015625 0  0.5546875 0.015625 0  0.5625 0.015625 0  0.5703125 0.015625 0  0.578125 0.015625 0  0.5859375 0.015625 0  0.59375 0.015625 0  0.6015625 0.015625 0  0.609375 0.015625 0  0.6171875 0.015625 0  0.625 0.015625 0  0.6328125 0.015625 0  0.640625 0.015625 0  0.6484375 0.015625 0  0.65625 0.015625 0  0.6640625 0.015625 0  0.671875 0.015625 0  0.6796875 0.015625 0  0.6875 0.015625 0  0.6953125 0.015625 0  0.703125 0.015625 0  0.7109375 0.015625 0  0.71875 0.015625 0  0.7265625 0.015625 0  0.734375 0.015625 0  0.7421875 0.015625 0  0.75 0.015625 0  0.7578125 0.015625 0  0.765625 0.015625 0  0.7734375 0.015625 0  0.78125 0.015625 0  0.7890625 0.015625 0  0.796875 0.015625 0  0.8046875 0.015625 0  0.8125 0.015625 0  0.8203125 0.015625 0  0.828125 0.015625 0  0.8359375 0.015625 0  0.84375 0.015625 0  0.8515625 0.015625 0  0.859375 0.015625 0  0.8671875 0.015625 0  0.875 0.015625 0  0.8828125 0.015625 0  0.890625 0.015625 0  0.8984375 0.015625 0  0.90625 0.015625 0  0.9140625 0.015625 0  0.921875 0.015625 0  0.9296875 0.015625 0  0.9375 0.015625 0  0.9453125 0.015625 0  0.953125 0.015625 0  0.9609375 0.015625 0  0.96875 0.015625 0  0.9765625 0.015625 0  0.984375 0.015625 0  0.9921875 0.015625 0  1 0.015625 0  0 0.0234375 0  0.0078125 0.0234375 0  0.015625 0.0234375 0  0.0234375 0.0234375 0  0.03125 0.0234375 0  0.0390625 0.0234375 0  0.046875 0.0234375 0  0.0546875 0.0234375 0  0.0625 0.0234375 0  0.0703125 0.0234375 0  0.078125 0.0234375 0  0.0859375 0.0234375 0  0.09375 0.0234375 0  0.1015625 0.0234375 0  0.109375 0.0234375 0  0.1171875 0.0234375 0  0.125 0.0234375 0  0.1328125 0.0234375 0  0.140625 0.0234375 0  0.1484375 0.0234375 0  0.15625 0.0234375 0  0.1640625 0.0234375 0  0.171875 0.0234375 0  0.1796875 0.0234375 0  0.1875 0.0234375 0  0.1953125 0.0234375 0  0.203125 0.0234375 0  0.2109375 0.0234375 0  0.21875 0.0234375 0  0.2265625 0.0234375 0  0.234375 0.0234375 0  0.2421875 0.0234375 0  0.25 0.0234375 0  0.2578125 0.0234375 0  0.265625 0.0234375 0  0.2734375 0.0234375 0  0.28125 0.0234375 0  0.2890625 0.0234375 0  0.296875 0.0234375 0  0.3046875 0.0234375 0  0.3125 0.0234375 0  0.3203125 0.0234375 0  0.328125 0.0234375 0  0.3359375 0.0234375 0  0.34375 0.0234375 0  0.3515625 0.0234375 0  0.359375 0.0234375 0  0.3671875 0.0234375 0  0.375 0.0234375 0  0.3828125 0.0234375 0  0.390625 0.0234375 0  0.3984375 0.0234375 0  0.40625 0.0234375 0  0.4140625 0.0234375 0  0.421875 0.0234375 0  0.4296875 0.0234375 0  0.4375 0.0234375 0  0.4453125 0.0234375 0  0.453125 0.0234375 0  0.4609375 0.0234375 0  0.46875 0.0234375 0  0.4765625 0.0234375 0  0.484375 0.0234375 0  0.4921875 0.0234375 0  0.5 0.0234375 0  0.5078125 0.0234375 0  0.515625 0.0234375 0  0.5234375 0.0234375 0  0.53125 0.0234375 0  0.5390625 0.0234375 0  0.546875 0.0234375 0  0.5546875 0.0234375 0  0.5625 0.0234375 0  0.5703125 0.0234375 0  0.578125 0.0234375 0  0.5859375 0.0234375 0  0.59375 0.0234375 0  0.6015625 0.0234375 0  0.609375 0.0234375 0  0.6171875 0.0234375 0  0.625 0.0234375 0  0.6328125 0.0234375 0  0.640625 0.0234375 0  0.6484375 0.0234375 0  0.65625 0.0234375 0  0.6640625 0.0234375 0  0.671875 0.0234375 0  0.6796875 0.0234375 0  0.6875 0.0234375 0  0.6953125 0.0234375 0  0.703125 0.0234375 0  0.7109375 0.0234375 0  0.71875 0.0234375 0  0.7265625 0.0234375 0  0.734375 0.0234375 0  0.7421875 0.0234375 0  0.75 0.0234375 0  0.7578125 0.0234375 0  0.765625 0.0234375 0  0.7734375 0.0234375 0  0.78125 0.0234375 0  0.7890625 0.0234375 0  0.796875 0.0234375 0  0.8046875 0.0234375 0  0.8125 0.0234375 0  0.8203125 0.0234375 0  0.828125 0.0234375 0  0.8359375 0.0234375 0  0.84375 0.0234375 0  0.8515625 0.0234375 0  0.859375 0.0234375 0  0.8671
[...]
<PointData  Scalars="v_sol"> 
<DataArray  type="Float64"  Name="v_sol"  format="ascii">-9.5773936118874786e-07  -6.0541739509433450e-06  -5.0542168912448402e-06  3.9066981484833045e-07  8.2295042912552730e-06  1.7047112715804627e-05  2.5725538949316882e-05  3.3349269618563406e-05  3.9191555323807363e-05  4.2796492722714268e-05  4.4018710399576016e-05  4.3030448976495786e-05  4.0265174311868740e-05  3.6326285706266328e-05  3.1877494388077081e-05  2.7544020828215335e-05  2.3839399890573017e-05  2.1126082961795102e-05  1.9606237660572959e-05  1.9334339647228272e-05  2.0240773737463700e-05  2.2157982935146228e-05  2.4844499901465710e-05  2.8006700298827333e-05  3.1321076146989241e-05  3.4460448593111834e-05  3.7124662353333563e-05  3.9070476523454434e-05  4.0130477508476536e-05  4.0206540935551405e-05  3.9228097595215192e-05  3.7086628885491321e-05  3.3562597603578651e-05  2.8265919277845884e-05  2.0637219771232357e-05  1.0008643798552932e-05  -4.3606738501633285e-06  -2.3291135280114999e-05  -4.7644419074561328e-05  -7.8222466122466306e-05  -1.1570482061939039e-04  -1.6071967701553085e-04  -2.1391255024224060e-04  -2.7565850181063197e-04  -3.4552921499013059e-04  -4.2221504572156264e-04  -5.0400729681213813e-04  -5.8910918722087735e-04  -6.7542562615934974e-04  -7.6019642335879592e-04  -8.3989659381020795e-04  -9.1050498589211732e-04  -9.6799334154241707e-04  -1.0088254476713456e-03  -1.0303142845737771e-03  -1.0307786543968548e-03  -1.0095173280257688e-03  -9.6665900358044565e-04  -9.0295526822784878e-04  -8.1957114044758548e-04  -7.1791013368581490e-04  -5.9949141428917757e-04  -4.6588353008423481e-04  -3.1869041733875394e-04  -1.5958043711307372e-04  9.6523367049568136e-06  1.8700642300295862e-04  3.7018262222361550e-04  5.5649735539174206e-04  7.4281224831097977e-04  9.2549306767819746e-04  1.1004109934819328e-03  1.2629982209385196e-03  1.4083671914710046e-03  1.5314983058561473e-03  1.6274946024352295e-03  1.6918936718755169e-03  1.7210181933529172e-03  1.7123369904697104e-03  1.6647998421557210e-03  1.5791028386137323e-03  1.4578371440558879e-03  1.3054777871642771e-03  1.1281797645662280e-03  9.3337191809880011e-04  7.2916975382621878e-04  5.2366617630059500e-04  3.2419092803229394e-04  1.3665061636189220e-04  -3.4936646240859246e-05  -1.8861686281358792e-04  -3.2432896247183723e-04  -4.4338006002141335e-04  -5.4761256024763512e-04  -6.3837078624480231e-04  -7.1546047120674269e-04  -7.7641484630111221e-04  -8.1648225275670456e-04  -8.2971851302801830e-04  -8.1121790387549716e-04  -7.5979959572049910e-04  -6.7973810789244480e-04  -5.8025989428038788e-04  -4.7293964082619139e-04  -3.6861191148636541e-04  -2.7525974515309648e-04  -1.9723627624005261e-04  -1.3561937340246473e-04  -8.9238065972302547e-05  -5.5782024027022101e-05  -3.2625910599359839e-05  -1.7285568290488437e-05  -7.5921446291583559e-06  -1.7226103451697693e-06  1.8092301401478806e-06  4.1604109713193866e-06  6.1650256287894945e-06  8.3473505521453730e-06  1.0946860566418932e-05  1.3950767240010230e-05  1.7134219693638534e-05  2.0101482881376171e-05  2.2339393343751533e-05  2.3264303445269918e-05  2.2295009381549925e-05  1.8889385694517023e-05  1.2779256390786163e-05  4.4832022723097281e-06  -8.3792218043273044e-07  2.0404684993826810e-06  3.2762679891483840e-05  2.8089847648812003e-05  -2.8305374902665033e-07  -4.0433874475997911e-05  -8.5433192498812334e-05  -1.2968989036532896e-04  -1.6853913992596585e-04  -1.9828346310488311e-04  -2.1656488085092595e-04  -2.2264531412610124e-04  -2.1741725354721691e-04  -2.0312963420243495e-04  -1.8289790442277279e-04  -1.6013722150279476e-04  -1.3804715534120716e-04  -1.1923987628893366e-04  -1.0554391923834869e-04  -9.7966195798035151e-05  -9.6763528309676532e-05  -1.0156798941797874e-04  -1.1152145822804261e-04  -1.2539658919311558e-04  -1.4170440353274624e-04  -1.5880479767362406e-04  -1.7503895226645230e-04  -1.8888772389852841e-04  -1.9912997665076548e-04  -2.0494363380082253e-04  -2.0587513928985353e-04  -2.0162909229224298e-04  -1.9171372685603444e-04  -1.7505021150764308e-04  -1.4969790689403853e-04  -1.1285393254329000e-04  -6.1103164584494363e-05  9.3292994307140035e-06  1.0245310779580431e-04  2.2242630428345476e-04  3.7336057370252563e-04  5.5892250902831440e-04  7.8216208837884871e-04  1.0456728279060390e-03  1.3506295808108511e-03  1.6947295732783637e-03  2.0719171858666796e-03  2.4742766365331527e-03  2.8929762500976815e-03  3.3171514800708112e-03  3.7326732450918823e-03  4.1224645648207381e-03  4.4682552822166155e-03  4.7527518172104872e-03  4.9613581245899555e-03  5.0831071566932408e-03  5.1108536952026110e-03  5.0409401367601898e-03  4.8725631504818274e-03  4.6070303948247725e-03  4.2470477026932164e-03  3.7961349107924389e-03  3.2582276315358720e-03  2.6374941260269851e-03  1.9383731782042330e-03  1.1658211454158704e-03  3.2574451835982391e-04  -5.7441656991231061e-04  -1.5250022275523287e-03  -2.5134074484139748e-03  -3.5234020638818930e-03  -4.5346026228162304e-03  -5.5222247062348788e-03  -6.4572573943216275e-03  -7.3071965847170146e-03  -8.0374405351322890e-03  -8.6133801979110074e-03  -9.0031062805517054e-03  -9.1805154968366658e-03  -9.1284546584618712e-03  -8.8414312955756805e-03  -8.3273855632154756e-03  -7.6080901093653645e-03  -6.7179299635277698e-03  -5.7010836057661343e-03  -4.6074166593837642e-03  -3.4876485158131620e-03  -2.3884969289887487e-03  -1.3485096039225659e-03  -3.9517271704550598e-04  4.5632121732295893e-04  1.2025066574458160e-03  1.8493627971438733e-03  2.4085812634512013e-03  2.8928042050203780e-03  3.3104527874003053e-03  3.6610900309794860e-03  3.9327005390515550e-03  4.1025749778954073e-03  4.1431138983565622e-03  4.0322345625229752e-03  3.7652207928259938e-03  3.3623169968162066e-03  2.8668941964824627e-03  2.3341740634537818e-03  1.8167583100371862e-03  1.3539214421186814e-03  9.6731423241209254e-04  6.6239823696853239e-04  4.3335540955729521e-04  2.6861385564818036e-04  1.5503374075355003e-04  8.0212099992174883e-05  3.3334908029834520e-05  5.3086413974748903e-06  -1.1289832160057015e-05  -2.2244372144001330e-05  -3.1719895144871671e-05  -4.2324660077332362e-05  -5.5232201605452536e-05  -7.0348148878829049e-05  -8.6503786886086477e-05  -1.0167132005649797e-04  -1.1321474108952439e-04  -1.1814580783019095e-04  -1.1348326341696672e-04  -9.6282737568615027e-05  -6.5236327248670528e-05  -1.9814168484783190e-05  7.3927704048688106e-06  1.2564214369483436e-05  9.2427926010732803e-05  5.5796388942705116e-05  -5.6128449104818691e-05  -2.1127557694539429e-04  -3.8370432048733357e-04  -5.5201073713346844e-04  -6.9835586132962872e-04  -8.0915195111873469e-04  -8.7616044887343209e-04  -8.9716392873890423e-04  -8.7578575977119173e-04  -8.2040049046680833e-04  -7.4240898558476838e-04  -6.5428159301157121e-04  -5.6777316309016923e-04  -4.9258987806296368e-04  -4.3562492622083301e-04  -4.0072630688400688e-04  -3.8886018289308749e-04  -3.9849828092169699e-04  -4.2608168472961223e-04  -4.6647418995506153e-04  -5.1338907262135918e-04  -5.5982583363423934e-04  -5.9856313923595315e-04  -6.2270774725287884e-04  -6.2620419241261644e-04  -6.0410268266256409e-04  -5.5235169522885698e-04  -4.6698621179938572e-04  -3.4281699920030498e-04  -1.7208376480719984e-04  5.6298077137776000e-05  3.5658471981879459e-04  7.4526532530722739e-04  1.2396618047967852e-03  1.8564458240566725e-03  2.6106281347618734e-03  3.5147951252877184e-03  4.5764545023769462e-03  5.7939808061255125e-03  7.1550367072427653e-03  8.6361550175224934e-03  1.0200403996405732e-02  1.1796338221571570e-02  1.3361187123525029e-02  1.4826531386519232e-02  1.6124361673131419e-02  1.7192918361109987e-02  1.7981834174415307e-02  1.8455760671471207e-02  1.8595843406637412e-02  1.8398975280431090e-02  1.7875294827329039e-02  1.7044680447629933e-02  1.5933003119570643e-02  1.4568733056746226e-02  1.2980257833246059e-02  1.1194051341670787e-02  9.2336781370487876e-03  7.1195284242418361e-03  4.8691478673916783e-03  2.4980301092957717e-03  2.0757335046101226e-05  -2.5476025820217736e-03  -5.1899228436748726e-03  -7.8853474236327097e-03  -1.0607620453187052e-02  -1.3323543876521658e-02  -1.5991738530762401e-02  -1.8561932109022301e-02  -2.0975041440144154e-02  -2.3164326002852637e-02  -2.5057849296447405e-02  -2.6582365268231802e-02  -2.7668541714016306e-02  -2.8257151237463328e-02  -2.8305555023227708e-02  -2.7793552137402602e-02  -2.6727566257763340e-02  -2.5142266306653695e-02  -2.3099081896962768e-02  -2.0681608093457805e-02  -1.7988455584887115e-02  -1.5124533249228817e-02  -1.2191942436279964e-02  -9.2816073806225689e-03  -6.4665349593709745e-03  -3.7973337493340288e-03  -1.3004248863805079e-03  1.0206919261801588e-03  3.1807538467965401e-03  5.2043295378531593e-03  7.1137157208834689e-03  8.9139768453611774e-03  1.0577538903875727e-02  1.2033058113863317e-02  1.3165582335477407e-02  1.3835198026652715e-02  1.3916393192846032e-02  1.3348832906096116e-02  1.2177077027847391e-02  1.0554176089395503e-02  8.7013445822049385e-03  6.8434212734022302e-03  5.1537115837509556e-03  3.7301037897326944e-03  2.6015240761320863e-03  1.7500834802228170e-03  1.1342568281331501e-03  7.0537496186595151e-04  4.1655476758104378e-04  2.2652428313879467e-04  1.0097324081675344e-04  1.2927304136315570e-05  -5.7320767794467273e-05  -1.2260761126622590e-04  -1.8955856723450434e-04  -2.5941783312869067e-04  -3.2897303191708560e-04  -3.9154568835675233e-04  -4.3807488826230778e-04  -4.5827891370040305e-04  -4.4205512831224484e-04  -3.8088591577048193e-04  -2.7190450754969347e-04  -1.2294799460900961e-04  8.4994721962293639e-06  2.2279456276246523e-05  1.2498052859583644e-04  2.2314621548077418e-05  -2.1361583005307253e-04  -5.2770004214464387e-04  -8.7105359574756824e-04  -1.2016882124771080e-03  -1.4846927286046201e-03  -1.6943147134945520e-03  -1.8158568987335136e-03  -1.8465285487569134e-03  -1.7946294872414109e-03  -1.6771816084646765e-03  -1.5165402229565983e-03  -1.3367229396014199e-03  -1.1601275122123430e-03  -1.0050918162265343e-03  -8.8447011278987991e-04  -8.0515511300093814e-04  -7.6831475059311336e-04  -7.7005504848968716e-04  -8.0225453431135836e-04  -8.5341181563744451e-04  -9.0946463187450326e-04  -9.5462800217539258e-04  -9.7231623363402476e-04  -9.4612558284269828e-04  -8.6067348227352120e-04  -7.0191106125011733e-04  -4.5647139337287975e-04  -1.0987484206880486e-04  3.5596161463209973e-04  9.6493013356717329e-04  1.7474927054715484e-03  2.7390629516690600e-03  3.9762917192072257e-03  5.4930385830605994e-03  7.3161401973560235e-03  9.4593435841969793e-03  1.1917244150751438e-02  1.4660388855610025e-02  1.7630023055851811e-02  2.0735350969715405e-02  2.3856688608818035e-02  2.6854517632998013e-02  2.9583321710025170e-02  3.1907721596456967e-02  3.3717390326075014e-02  3.4937410255684587e-02  3.5532140873620208e-02  3.5502747775227328e-02  3.4880190530028374e-02  3.3716049293451220e-02  3.2073276844554556e-02  3.0018258799686962e-02  2.7614836206494707e-02  2.4920382069084285e-02  2.1983687452563717e-02  1.8844265218941905e-02  1.5532671634942456e-02  1.2071506882686770e-02  8.4768487011511653e-03  4.7599601044659269e-03  9.2918653193833857e-04  -3.0079926626561493e-03  -7.0427651939129103e-03  -1.1162641715493695e-02  -1.5348986290222376e-02  -1.9574483504299647e-02  -2.3800670371291455e-02  -2.7975749896581897e-02  -3.2033006473737358e-02  -3.5890245607430232e-02  -3.9450750481443808e-02  -4.2606245417485610e-02  -4.5242231283138985e-02  -4.7245771664257259e-02  -4.8515350546054013e-02  -4.8971848390248207e-02  -4.8569117002410629e-02  -4.7302269138526469e-02  -4.5211830083869503e-02  -4.2382445703754414e-02  -3.8935844481261229e-02  -3.5018964068702724e-02  -3.0789187240876779e-02  -2.6399135682081520e-02  -2.1983290035322140e-02  -1.7647977290986175e-02  -1.3465343102802584e-02  -9.4712010438856020e-03  -5.6663842633263416e-03  -2.0214882863007905e-03  1.5144712540809666e-03  5.0003299290345563e-03  8.4827419513248386e-03  1.1969714425933453e-02  1.5400532404729678e-02  1.8620096983772198e-02  2.1372236101572926e-02  2.3330317945889446e-02  2.4176551604501585e-02  2.3716706929781815e-02  2.1981617256075434e-02  1.9251098249713900e-02  1.5971708627098940e-02  1.2610905350091291e-02  9.5302825188488521e-03  6.9323556037466424e-03  4.8769318148092836e-03  3.3299176469474487e-03  2.2111493975908308e-03  1.4269368538077337e-03  8.8768528186205392e-04  5.1597979692230480e-04  2.4969730927958963e-04  4.2618811074809824e-05  -1.3633137372624438e-04  -3.0464184124935834e-04  -4.6818083258345374e-04  -6.2333663546879179e-04  -7.5924251506740152e-04  -8.6010728718686580e-04  -9.0770902104141257e-04  -8.8423344101598860e-04  -7.7557447424839838e-04  -5.7702527225713166e-04  -3.0033929427985065e-04  2.9263486398536531e-06  3.0451769387677399e-05  1.1065454406807986e-04  -9.7470665689052452e-05  -4.9687108876087763e-04  -1.0064904624505762e-03  -1.5514748466608070e-03  -2.0660392168775931e-03  -2.4959989946815178e-03  -2.8027674506560327e-03  -2.9662432869056836e-03  -2.9854845314664308e-03  -2.8766509513248398e-03  -2.6686562653154750e-03  -2.3975413944296500e-03  -2.1007337632589882e-03  -1.8121510415733154e-03  -1.5587085711014600e-03  -1.3583724531293013e-03  -1.2195752824266113e-03  -1.1416265080705153e-03  -1.1157022003414172e-03  -1.1260634589483121e-03  -1.1512899109081295e-03  -1.1654750482565988e-03  -1.1394523207719242e-03  -1.0421305840341750e-03  -8.4186541357582421e-04  -5.0749985454241297e-04  -8.4209444996689077e-06  6.8693466513293348e-04  1.6140530486726274e-03  2.8157158592180347e-03  4.3434896869505675e-03  6.2551389007349748e-03  8.6080419400173403e-03  1.1449301996598788e-02  1.4803569285897511e-02  1.8661555767159131e-02  2.2969654487623743e-02  2.7621324206812087e-02  3.2455193602765338e-02  3.7263802393214404e-02  4.1813640776480206e-02  4.5873476644292213e-02  4.9244318363116990e-02  5.1782997150564690e-02  5.3413660174538739e-02  5.4125994571774493e-02  5.3963173493341579e-02  5.3004704536151775e-02  5.1349123882658283e-02  4.9099769033086091e-02  4.6354880236865549e-02  4.3201835859863133e-02  3.9714590366535511e-02  3.5953237718127536e-02  3.1964787503710193e-02  2.7784526844375643e-02  2.3437596879657879e-02  1.8940612227387060e-02  1.4303268925300148e-02  9.5299593942331316e-03  4.6214414575353911e-03  -4.2337281540120130e-04  -5.6054440496902868e-03  -1.0923383807876483e-02  -1.6370936007522142e-02  -2.1934137617804553e-02  -2.7588182447692459e-02  -3.3294085844730016e-02  -3.8995356869220392e-02  -4.4615028863230211e-02  -5.0053570007314682e-02  -5.5188367952119836e-02  -5.9875604942730899e-02  -6.3955339576036468e-02  -6.7260395967627257e-02  -6.9629157168852526e-02  -7.0921548798540457e-02  -7.1036484801416847e-02  -6.9928072203415154e-02  -6.7617299285844673e-02  -6.4196122677359954e-02  -5.9822003424612462e-02  -5.4702874517803111e-02  -4.9074733379131374e-02  -4.3175813787802601e-02  -3.7221945315055072e-02  -3.1387008926711112e-02  -2.5790669769245312e-02  -2.0493592567016425e-02  -1.5498949897866487e-02  -1.0758664417198277e-02  -6.1834718082795642e-03  -1.6572345891210146e-03  2.9425619243546933e-03  7.7153892288823874e-03  1.2697647808741686e-02  1.7814518528081823e-02  2.2834653645087896e-02  2.7350915527221874e-02  3.0820372654937186e-02  3.2689395793801812e-02  3.2588154900790652e-02  3.0511547535468066e-02  2.6868645580567244e-02  2.2346232924931091e-02  1.7664082172027508e-02  1.3369436236408053e-02  9.7593939424558667e-03  6.9147781611204754e-03  4.7791409697697310e-03  3.2312740061949093e-03  2.1331204114967044e-03  1.3557586275224887e-03  7.9137920397178341e-04  3.5742953691496446e-04  -3.4677713385317534e-06  -3.2580512122896949e-04  -6.2450436800303777e-04  -8.9859519582488818e-04  -1.1349841001828983e-03  -1.3122924121900690e-03  -1.4048597051956946e-03  -1.3871002064586059e-03  -1.2383294200203369e-03  -9.4890039400340946e-04  -5.2611952637306191e-04  -5.0255895258124535e-06  3.7715940146943552e-05  4.1120307836703739e-05  -3.2052731407442936e-04  -9.2678435659156015e-04  -1.6681364986046638e-03  -2.4401598899633499e-03  -3.1500728240915743e-03  -3.7227266461470811e-03  -4.1072068533038290e-03  -4.2807594941423697e-03  -4.2487202222199136e-03  -4.0402123485178340e-03  -3.7007469675114277e-03  -3.2835112109939591e-03  -2.8411106907657462e-03  -2.4190048895488146e-03  -2.0511819165987904e-03  -1.7580216991009800e-03  -1.5459215409855957e-03  -1.4081079064528791e-03  -1.3260782595135054e-03  -1.2712453706517938e-03  -1.2065454166037964e-03  -1.0879745171578500e-03  -8.6616223718450204e-04  -4.8807705641949452e-04  1.0130662430430028e-04  9.5799469061895687e-04  2.1394556050923492e-03  3.7070223178305877e-03  5.7291019686458167e-03  8.2820117094263949e-03  1.1445209720107371e-02  1.5288865777952314e-02  1.9854531351874385e-02  2.5134062472113770e-02  3.1050928939460435e-02  3.7447329477592266e-02  4.4083374322760466e-02  5.0653908370524608e-02  5.6823906860752095e-02  6.2275718214226380e-02  6.6754744143378217e-02  7.0099580033785067e-02  7.2249352500587533e-02  7.3230383468987442e-02  7.3130779976141883e-02  7.2072704318578040e-02  7.0189314314756460e-02  6.7609267044389146e-02  6.4448453589557586e-02  6.0806995247192325e-02  5.6769283934092002e-02  5.2405323076815571e-02  4.7772330188506233e-02  4.2916135902121379e-02  3.7872296969625463e-02  3.2667002864830923e-02  2.7317911129785148e-02  2.1835017699729644e-02  1.6221642833130000e-02  1.0475574911881643e-02  4.5904111434497009e-03  -1.4428749240004304e-03  -7.6340902120079542e-03  -1.3991649976268469e-02  -2.0520006468324799e-02  -2.7216616354804449e-02  -3.4068399180288797e-02  -4.1047695024047821e-02  -4.8107816494537776e-02  -5.5178441679868385e-02  -6.2161298570750145e-02  -6.8926858821260040e-02  -7.5313043439737770e-02  -8.1127186387794842e-02  -8.6152573999090043e-02  -9.0160633964371475e-02  -9.2929128339476919e-02  -9.4265462688813528e-02  -9.4032582511466553e-02  -9.2173298500143774e-02  -8.8727869309435797e-02  -8.3839906812345599e-02  -7.7747468672824810e-02  -7.0759313051339159e-02  -6.3219857700005128e-02  -5.5469238260615852e-02  -4.7805952553899057e-02  -4.0458443266027565e-02  -3.3569013044944140e-02  -2.7189940893695683e-02  -2.1289156416292834e-02  -1.5762313184771636e-02  -1.0449433543030698e-02  -5.1565372033799432e-03  3.1512934816813688e-04  6.1284436980618357e-03  1.2355631385069355e-02  1.8911923264169125e-02  2.5491701560699485e-02  3.1539364422503068e-02  3.6303896172025799e-02  3.9017007729657237e-02  3.9170724665159119e-02  3.6767052296536470e-02  3.2367746202898860e-02  2.6882995804467763e-02  2.1232477317733436e-02  1.6086890401485414e-02  1.1790080213664381e-02  8.4185836883719761e-03  5.8866831153322457e-03  4.0365175945064431e-03  2.6961319555751447e-03  1.7105678248475857e-03  9.5554961598479256e-04  3.4114273405963042e-04  -1.8991727781928427e-04  -6.6641085713928174e-04  -1.0937677841904479e-03  -1.4594279190970044e-03  -1.7382379562786480e-03  -1.8979521327025636e-03  -1.9049750788074028e-03  -1.7303292913186752e-03  -1.3557902130226444e-03  -7.7849172742727073e-04  -1.4110379404883684e-05  4.5028787254092845e-05  -8.8519157531910176e-05  -6.6139078508042426e-04  -1.5260798626104246e-03  -2.5397434047223378e-03  -3.5630461747476012e-03  -4.4720618488553448e-03  -5.1691580282334270e-03  -5.5929949628818381e-03  -5.7232938605725342e-03  -5.5788698103898110e-03  -5.2094305222626517e-03  -4.6835299569770146e-03  -4.0756788147802208e-03  -3.4551274833562063e-03  -2.8777392205111768e-03  -2.3812533977482842e-03  -1.9834651742231760e-03  -1.6825033407388416e-03  -1.4583691228013719e-03  -1.2750498246486407e-03  -1.0827328324644462e-03  -8.1987870864707007e-04  -4.1515090626770913e-04  2.1062763118353121e-04  1.1423830547421339e-03  2.4688422386901425e-03  4.2814913909477188e-03  6.6751229425761321e-03  9.7488652693351364e-03  1.3604050539252649e-02  1.8333898488103486e-02  2.4001515162009029e-02  3.0609464663103096e-02  3.8069313586001116e-02  4.6180428098163376e-02  5.4627909510501074e-02  6.3007545371479942e-02 