<?xml version="1.0"?>
<VTKFile type="UnstructuredGrid"  version="0.1"  >
<UnstructuredGrid>
<Piece  NumberOfPoints="1089" NumberOfCells="1024">
<Points>
<DataArray  type="Float64"  NumberOfComponents="3"  format="ascii">0 0 0  0.03125 0 0  0.0625 0 0  0.09375 0 0  0.125 0 0  0.15625 0 0  0.1875 0 0  0.21875 0 0  0.25 0 0  0.28125 0 0  0.3125 0 0  0.34375 0 0  0.375 0 0  0.40625 0 0  0.4375 0 0  0.46875 0 0  0.5 0 0  0.53125 0 0  0.5625 0 0  0.59375 0 0  0.625 0 0  0.65625 0 0  0.6875 0 0  0.71875 0 0  0.75 0 0  0.78125 0 0  0.8125 0 0  0.84375 0 0  0.875 0 0  0.90625 0 0  0.9375 0 0  0.96875 0 0  1 0 0  0 0.03125 0  0.03125 0.03125 0  0.0625 0.03125 0  0.09375 0.03125 0  0.125 0.03125 0  0.15625 0.03125 0  0.1875 0.03125 0  0.21875 0.03125 0  0.25 0.03125 0  0.28125 0.03125 0  0.3125 0.03125 0  0.34375 0.03125 0  0.375 0.03125 0  0.40625 0.03125 0  0.4375 0.03125 0  0.46875 0.03125 0  0.5 0.03125 0  0.53125 0.03125 0  0.5625 0.03125 0  0.59375 0.03125 0  0.625 0.03125 0  0.65625 0.03125 0  0.6875 0.03125 0  0.71875 0.03125 0  0.75 0.03125 0  0.78125 0.03125 0  0.8125 0.03125 0  0.84375 0.03125 0  0.875 0.03125 0  0.90625 0.03125 0  0.9375 0.03125 0  0.96875 0.03125 0  1 0.03125 0  0 0.0625 0  0.03125 0.0625 0  0.0625 0.0625 0  0.09375 0.0625 0  0.125 0.0625 0  0.15625 0.0625 0  0.1875 0.0625 0  0.21875 0.0625 0  0.25 0.0625 0  0.28125 0.0625 0  0.3125 0.0625 0  0.34375 0.0625 0  0.375 0.0625 0  0.40625 0.0625 0  0.4375 0.0625 0  0.46875 0.0625 0  0.5 0.0625 0  0.53125 0.0625 0  0.5625 0.0625 0  0.59375 0.0625 0  0.625 0.0625 0  0.65625 0.0625 0  0.6875 0.0625 0  0.71875 0.0625 0  0.75 0.0625 0  0.78125 0.0625 0  0.8125 0.0625 0  0.84375 0.0625 0  0.875 0.0625 0  0.90625 0.0625 0  0.9375 0.0625 0  0.96875 0.0625 0  1 0.0625 0  0 0.09375 0  0.03125 0.09375 0  0.0625 0.09375 0  0.09375 0.09375 0  0.125 0.09375 0  0.15625 0.09375 0  0.1875 0.09375 0  0.21875 0.09375 0  0.25 0.09375 0  0.28125 0.09375 0  0.3125 0.09375 0  0.34375 0.09375 0  0.375 0.09375 0  0.40625 0.09375 0  0.4375 0.09375 0  0.46875 0.09375 0  0.5 0.09375 0  0.53125 0.09375 0  0.5625 0.09375 0  0.59375 0.09375 0  0.625 0.09375 0  0.65625 0.09375 0  0.6875 0.09375 0  0.71875 0.09375 0  0.75 0.09375 0  0.78125 0.09375 0  0.8125 0.09375 0  0.84375 0.09375 0  0.875 0.09375 0  0.90625 0.09375 0  0.9375 0.09375 0  0.96875 0.09375 0  1 0.09375 0  0 0.125 0  0.03125 0.125 0  0.0625 0.125 0  0.09375 0.125 0  0.125 0.125 0  0.15625 0.125 0  0.1875 0.125 0  0.21875 0.125 0  0.25 0.125 0  0.28125 0.125 0  0.3125 0.125 0  0.34375 0.125 0  0.375 0.125 0  0.40625 0.125 0  0.4375 0.125 0  0.46875 0.125 0  0.5 0.125 0  0.53125 0.125 0  0.5625 0.125 0  0.59375 0.125 0  0.625 0.125 0  0.65625 0.125 0  0.6875 0.125 0  0.71875 0.125 0  0.75 0.125 0  0.78125 0.125 0  0.8125 0.125 0  0.84375 0.125 0  0.875 0.125 0  0.90625 0.125 0  0.9375 0.125 0  0.96875 0.125 0  1 0.125 0  0 0.15625 0  0.03125 0.15625 0  0.0625 0.15625 0  0.09375 0.15625 0  0.125 0.15625 0  0.15625 0.15625 0  0.1875 0.15625 0  0.21875 0.15625 0  0.25 0.15625 0  0.28125 0.15625 0  0.3125 0.15625 0  0.34375 0.15625 0  0.375 0.15625 0  0.40625 0.15625 0  0.4375 0.15625 0  0.46875 0.15625 0  0.5 0.15625 0  0.53125 0.15625 0  0.5625 0.15625 0  0.59375 0.15625 0  0.625 0.15625 0  0.65625 0.15625 0  0.6875 0.15625 0  0.71875 0.15625 0  0.75 0.15625 0  0.78125 0.15625 0  0.8125 0.15625 0  0.84375 0.15625 0  0.875 0.15625 0  0.90625 0.15625 0  0.9375 0.15625 0  0.96875 0.15625 0  1 0.15625 0  0 0.1875 0  0.03125 0.1875 0  0.0625 0.1875 0  0.09375 0.1875 0  0.125 0.1875 0  0.15625 0.1875 0  0.1875 0.1875 0  0.21875 0.1875 0  0.25 0.1875 0  0.28125 0.1875 0  0.3125 0.1875 0  0.34375 0.1875 0  0.375 0.1875 0  0.40625 0.1875 0  0.4375 0.1875 0  0.46875 0.1875 0  0.5 0.1875 0  0.53125 0.1875 0  0.5625 0.1875 0  0.59375 0.1875 0  0.625 0.1875 0  0.65625 0.1875 0  0.6875 0.1875 0  0.71875 0.1875 0  0.75 0.1875 0  0.78125 0.1875 0  0.8125 0.1875 0  0.84375 0.1875 0  0.875 0.1875 0  0.90625 0.1875 0  0.9375 0.1875 0  0.96875 0.1875 0  1 0.1875 0  0 0.21875 0  0.03125 0.21875 0  0.0625 0.21875 0  0.09375 0.21875 0  0.125 0.21875 0  0.15625 0.21875 0  0.1875 0.21875 0  0.21875 0.21875 0  0.25 0.21875 0  0.28125 0.21875 0  0.3125 0.21875 0  0.34375 0.21875 0  0.375 0.21875 0  0.40625 0.21875 0  0.4375 0.21875 0  0.46875 0.21875 0  0.5 0.21875 0  0.53125 0.21875 0  0.5625 0.21875 0  0.59375 0.21875 0  0.625 0.21875 0  0.65625 0.21875 0  0.6875 0.21875 0  0.71875 0.21875 0  0.75 0.21875 0  0.78125 0.21875 0  0.8125 0.21875 0  0.84375 0.21875 0  0.875 0.21875 0  0.90625 0.21875 0  0.9375 0.21875 0  0.96875 0.21875 0  1 0.21875 0  0 0.25 0  0.03125 0.25 0  0.0625 0.25 0  0.09375 0.25 0  0.125 0.25 0  0.15625 0.25 0  0.1875 0.25 0  0.21875 0.25 0  0.25 0.25 0  0.28125 0.25 0  0.3125 0.25 0  0.34375 0.25 0  0.375 0.25 0  0.40625 0.25 0  0.4375 0.25 0  0.46875 0.25 0  0.5 0.25 0  0.53125 0.25 0  0.5625 0.25 0  0.59375 0.25 0  0.625 0.25 0  0.65625 0.25 0  0.6875 0.25 0  0.71875 0.25 0  0.75 0.25 0  0.78125 0.25 0  0.8125 0.25 0  0.84375 0.25 0  0.875 0.25 0  0.90625 0.25 0  0.9375 0.25 0  0.96875 0.25 0  1 0.25 0  0 0.28125 0  0.03125 0.28125 0  0.0625 0.28125 0  0.09375 0.28125 0  0.125 0.28125 0  0.15625 0.28125 0  0.1875 0.28125 0  0.21875 0.28125 0  0.25 0.28125 0  0.28125 0.28125 0  0.3125 0.28125 0  0.34375 0.28125 0  0.375 0.28125 0  0.40625 0.28125 0  0.4375 0.28125 0  0.46875 0.28125 0  0.5 0.28125 0  0.53125 0.28125 0  0.5625 0.28125 0  0.59375 0.28125 0  0.625 0.28125 0  0.65625 0.28125 0  0.6875 0.28125 0  0.71875 0.28125 0  0.75 0.28125 0  0.78125 0.28125 0  0.8125 0.28125 0  0.84375 0.28125 0  0.875 0.28125 0  0.90625 0.28125 0  0.9375 0.28125 0  0.96875 0.28125 0  1 0.28125 0  0 0.3125 0  0.03125 0.3125 0  0.0625 0.3125 0  0.09375 0.3125 0  0.125 0.3125 0  0.15625 0.3125 0  0.1875 0.3125 0  0.21875 0.3125 0  0.25 0.3125 0  0.28125 0.3125 0  0.3125 0.3125 0  0.34375 0.3125 0  0.375 0.3125 0  0.40625 0.3125 0  0.4375 0.3125 0  0.46875 0.3125 0  0.5 0.3125 0  0.53125 0.3125 0  0.5625 0.3125 0  0.59375 0.3125 0  0.625 0.3125 0  0.65625 0.3125 0  0.6875 0.3125 0  0.71875 0.3125 0  0.75 0.3125 0  0.78125 0.3125 0  0.8125 0.3125 0  0.84375 0.3125 0  0.875 0.3125 0  0.90625 0.3125 0  0.9375 0.3125 0  0.96875 0.3125 0  1 0.3125 0  0 0.34375 0  0.03125 0.34375 0  0.0625 0.34375 0  0.09375 0.34375 0  0.125 0.34375 0  0.15625 0.34375 0  0.1875 0.34375 0  0.21875 0.34375 0  0.25 0.34375 0  0.28125 0.34375 0  0.3125 0.34375 0  0.34375 0.34375 0  0.375 0.34375 0  0.40625 0.34375 0  0.4375 0.34375 0  0.46875 0.34375 0  0.5 0.34375 0  0.53125 0.34375 0  0.5625 0.34375 0  0.59375 0.34375 0  0.625 0.34375 0  0.65625 0.34375 0  0.6875 0.34375 0  0.71875 0.34375 0  0.75 0.34375 0  0.78125 0.34375 0  0.8125 0.34375 0  0.84375 0.34375 0  0.875 0.34375 0  0.90625 0.34375 0  0.9375 0.34375 0  0.96875 0.34375 0  1 0.34375 0  0 0.375 0  0.03125 0.375 0  0.0625 0.375 0  0.09375 0.375 0  0.125 0.375 0  0.15625 0.375 0  0.1875 0.375 0  0.21875 0.375 0  0.25 0.375 0  0.28125 0.375 0  0.3125 0.375 0  0.34375 0.375 0  0.375 0.375 0  0.40625 0.375 0  0.4375 0.375 0  0.46875 0.375 0  0.5 0.375 0  0.53125 0.375 0  0.5625 0.375 0  0.59375 0.375 0  0.625 0.375 0  0.65625 0.375 0  0.6875 0.375 0  0.71875 0.375 0  0.75 0.375 0  0.78125 0.375 0  0.8125 0.375 0  0.84375 0.375 0  0.875 0.375 0  0.90625 0.375 0  0.9375 0.375 0  0.96875 0.375 0  1 0.375 0  0 0.40625 0  0.03125 0.40625 0  0.0625 0.40625 0  0.09375 0.40625 0  0.125 0.40625 0  0.15625 0.40625 0  0.1875 0.40625 0  0.21875 0.40625 0  0.25 0.40625 0  0.28125 0.40625 0  0.3125 0.40625 0  0.34375 0.40625 0  0.375 0.40625 0  0.40625 0.40625 0  0.4375 0.40625 0  0.46875 0.40625 0  0.5 0.40625 0  0.53125 0.40625 0  0.5625 0.40625 0  0.59375 0.40625 0  0.625 0.40625 0  0.65625 0.40625 0  0.6875 0.40625 0  0.71875 0.40625 0  0.75 0.40625 0  0.78125 0.40625 0  0.8125 0.40625 0  0.84375 0.40625 0  0.875 0.40625 0  0.90625 0.40625 0  0.9375 0.40625 0  0.96875 0.40625 0  1 0.40625 0  0 0.4375 0  0.03125 0.4375 0  0.0625 0.4375 0  0.09375 0.4375 0  0.125 0.4375 0  0.15625 0.4375 0  0.1875 0.4375 0  0.21875 0.4375 0  0.25 0.4375 0  0.28125 0.4375 0  0.3125 0.4375 0  0.34375 0.4375 0  0.375 0.4375 0  0.40625 0.4375 0  0.4375 0.4375 0  0.46875 0.4375 0  0.5 0.4375 0  0.53125 0.4375 0  0.5625 0.4375 0  0.59375 0.4375 0  0.625 0.4375 0  0.65625 0.4375 0  0.6875 0.4375 0  0.71875 0.4375 0  0.75 0.4375 0  0.78125 0.4375 0  0.8125 0.4375 0  0.84375 0.4375 0  0.875 0.4375 0  0.90625 0.4375 0  0.9375 0.4375 0  0.96875 0.4375 0  1 0.4375 0  0 0.46875 0  0.03125 0.46875 0  0.0625 0.46875 0  0.09375 0.46875 0  0.125 0.46875 0  0.15625 0.46875 0  0.1875 0.46875 0  0.21875 0.46875 0  0.25 0.46875 0  0.28125 0.46875 0  0.3125 0.46875 0  0.34375 0.46875 0  0.375 0.46875 0  0.40625 0.46875 0  0.4375 0.46875 0  0.46875 0.46875 0  0.5 0.46875 0  0.53125 0.46875 0  0.5625 0.46875 0  0.59375 0.46875 0  0.625 0.46875 0  0.65625 0.46875 0  0.6875 0.46875 0  0.71875 0.46875 0  0.75 0.46875 0  0.78125 0.46875 0  0.8125 0.46875 0  0.84375 0.46875 0  0.875 0.46875 0  0.90625 0.46875 0  0.9375 0.46875 0  0.96875 0.46875 0  1 0.46875 0  0 0.5 0  0.03125 0.5 0  0.0625 0.5 0  0.09375 0.5 0  0.125 0.5 0  0.15625 0.5 0  0.1875 0.5 0  0.21875 0.5 0  0.25 0.5 0  0.28125 0.5 0  0.3125 0.5 0  0.34375 0.5 0  0.375 0.5 0  0.40625 0.5 0  0.4375 0.5 0  0.46875 0.5 0  0.5 0.5 0  0.53125 0.5 0  0.5625 0.5 0  0.59375 0.5 0  0.625 0.5 0  0.65625 0.5 0  0.6875 0.5 0  0.71875 0.5 0  0.75 0.5 0  0.78125 0.5 0  0.8125 0.5 0  0.84375 0.5 0  0.875 0.5 0  0.90625 0.5 0  0.9375 0.5 0  0.96875 0.5 0  1 0.5 0  0 0.53125 0  0.03125 0.53125 0  0.0625 0.53125 0  0.09375 0.53125 0  0.125 0.53125 0  0.15625 0.53125 0  0.1875 0.53125 0  0.21875 0.53125 0  0.25 0.53125 0  0.28125 0.53125 0  0.3125 0.53125 0  0.34375 0.53125 0  0.375 0.53125 0  0.40625 0.53125 0  0.4375 0.53125 0  0.46875 0.53125 0  0.5 0.53125 0  0.53125 0.53125 0  0.5625 0.53125 0  0.59375 0.53125 0  0.625 0.53125 0  0.65625 0.53125 0  0.6875 0.53125 0  0.71875 0.53125 0  0.75 0.53125 0  0.78125 0.531
[...]
<PointData  Scalars="v_sol"> 
<DataArray  type="Float64"  Name="v_sol"  format="ascii">5.0429402056810304e-05  2.6662665581987487e-04  6.2576486051665393e-04  7.2833566779687377e-04  -1.1179087132573206e-04  -3.6091412264731655e-03  -5.6468782621166519e-04  2.5453283733601921e-03  2.6672541074224056e-03  -1.1705995113882076e-03  -6.4688621537358996e-03  -6.1394389135826640e-03  -3.5133592880111498e-03  -1.4550533433697545e-03  1.5781619275230722e-04  8.4167774697831664e-04  1.5199645247293472e-03  1.8130434797205364e-03  2.3558737496488895e-03  2.9546348531243418e-03  3.4734294218147933e-03  4.0907487317262403e-03  3.9393033124933098e-03  2.7072061875344430e-03  1.4974461547013910e-04  -3.1857505794941994e-03  -3.0459728537661399e-03  -1.0373073030788080e-03  -3.6190696357524688e-04  -2.3463542974850533e-04  2.3112738363821759e-06  2.0447212661163608e-05  2.7561190649983511e-05  1.4567445051258136e-04  -1.5994934985605874e-03  -4.1259110267152658e-03  -5.4407169311037418e-03  1.5815287380346271e-03  1.2156972250530257e-02  5.2358657140452606e-03  -1.5236297273464731e-02  7.2356912463539835e-05  9.9551549247201294e-03  1.3018205501943454e-02  2.0280193804943645e-02  2.3157145081806923e-02  2.0648777418651405e-02  1.1854876556074236e-02  1.2021236212083304e-04  -1.3671313053555999e-02  -2.6129523606647140e-02  -3.5829465755959231e-02  -3.8154286084377077e-02  -3.2202682978332252e-02  -1.5884379921936368e-02  4.6873925617207006e-03  1.9102471314773960e-02  1.9970850461117469e-02  1.2829120921084562e-02  7.2835617482678843e-03  3.9925735950839597e-03  1.7626082185894919e-03  8.1867198336359171e-04  5.4928865487693527e-06  -2.8138155818100764e-04  -1.0283698171879561e-04  -7.7284206749977762e-05  -5.4136545951550029e-03  -8.6255486206677830e-03  -1.7364385075439699e-02  -8.9727552935500651e-03  2.2398988448730065e-02  1.4437912567949398e-02  7.5200240561667415e-03  3.5693397611225218e-02  5.9637888927178272e-02  7.4286761952431987e-02  7.4283264963890719e-02  6.4149164734895334e-02  4.6190631085936608e-02  2.3651175542832626e-02  -2.1729502249872713e-03  -2.9112265703445800e-02  -5.5779207453560437e-02  -7.8451522513650951e-02  -9.3152864332110799e-02  -9.3237586008210138e-02  -7.6272842835613266e-02  -4.2708494577048985e-02  -6.8329229795981083e-03  1.8615872088869407e-02  2.3788681116376640e-02  2.1966624315576326e-02  1.6110904042553977e-02  9.4719534873130406e-03  4.2572449770088665e-03  1.8650281321088602e-03  -4.9646116452681786e-05  -2.8045923041543759e-04  -2.7489910473499292e-04  -1.0153119116124114e-02  -7.3699087153149693e-03  -1.9568543940323029e-03  -6.0016816990937378e-03  1.4659143757756284e-02  3.9977117146849421e-02  8.0664665629040205e-02  1.1489614544163343e-01  1.3128471474595713e-01  1.2963525868488898e-01  1.1348794837415080e-01  9.0087266668951574e-02  6.1536926970812360e-02  3.1465198889947060e-02  -8.8316756814817003e-04  -3.3735087930833019e-02  -6.8096514538932493e-02  -1.0114251790903762e-01  -1.3063819190354531e-01  -1.4920067067631437e-01  -1.4996344770386444e-01  -1.2620135622505016e-01  -8.0763519626062943e-02  -2.7070772634482879e-02  9.7543325411837880e-03  1.9347411859605902e-02  2.1211503039967768e-02  1.7043855279263307e-02  1.1632360181462907e-02  5.0733690855095529e-03  1.6839520184725085e-03  -2.5382023559636959e-04  -1.1850572822789786e-03  -1.6550665475223061e-02  -7.6739207897415741e-03  8.7578843422696177e-03  2.0637988765254439e-02  5.5744437346803490e-02  1.1647210379865749e-01  1.6461068564492362e-01  1.8469313658856937e-01  1.7938730936307890e-01  1.5743017441087362e-01  1.2824331917546378e-01  9.6377562233692080e-02  6.4601915320748701e-02  3.2724916880123703e-02  9.2166561379073699e-04  -3.1699718785989012e-02  -6.5118452375067720e-02  -9.9985172980827583e-02  -1.3542030681832953e-01  -1.6948899137029788e-01  -1.9562604901762784e-01  -2.0373130572004591e-01  -1.8166315300103689e-01  -1.2563845039412952e-01  -5.0131590360730276e-02  5.3060267436260741e-03  1.6165779775101422e-02  2.0224573123705632e-02  1.4658213642513808e-02  1.1184239128470009e-02  5.1307804159272524e-03  9.5186844504114825e-05  -4.4108416698390215e-03  -2.2917015909622772e-02  -2.2347570153642680e-03  2.2308625627786068e-02  7.1775263518386617e-02  1.4848281020637860e-01  2.0948521451676819e-01  2.3042880599641577e-01  2.1977867477398164e-01  1.9147797596620586e-01  1.5893981248449707e-01  1.2626558532719734e-01  9.5271211521463214e-02  6.4451846990619427e-02  3.3809772287618167e-02  2.4683122217567014e-03  -2.9013299741670044e-02  -6.0973790659218631e-02  -9.2775858955921525e-02  -1.2520175098320765e-01  -1.5849259604057087e-01  -1.9381800587422912e-01  -2.2741616846765020e-01  -2.4834514329411894e-01  -2.3502422132483161e-01  -1.7159984862481922e-01  -6.8983929526661061e-02  6.6267673513595200e-03  1.3807429414922931e-02  2.1634509170736654e-02  1.2939150881872495e-02  8.7924282735242533e-03  5.1522145588303028e-04  -1.1224407835711003e-02  -2.1542047805651939e-02  1.8483733384479558e-02  7.3474386390953564e-02  1.5804847124463495e-01  2.3610968372158042e-01  2.6445262141003956e-01  2.5297463418773858e-01  2.2298132745380783e-01  1.8997024272265148e-01  1.5919937087713315e-01  1.2944868200148263e-01  9.9761695190247912e-02  6.8835422284667755e-02  3.7427998107213756e-02  5.1172172976237749e-03  -2.7250105443109483e-02  -6.0036000230084458e-02  -9.2231014602815492e-02  -1.2373769366286309e-01  -1.5365754419727629e-01  -1.8326771481334259e-01  -2.1503057021939123e-01  -2.5087723356353181e-01  -2.8187707778071147e-01  -2.7894272828223149e-01  -2.0797738250997147e-01  -7.3940507421521307e-02  1.4789048725659957e-02  1.1038788363326404e-02  2.1082431979607710e-02  1.2270868992178116e-02  1.0264002454306454e-03  -1.6593835028337479e-02  -9.0723424291068444e-03  5.7119618688567644e-02  1.4822563396950827e-01  2.4648360527125623e-01  2.9351029187938854e-01  2.8566818091851492e-01  2.5612247295425666e-01  2.2262876808022428e-01  1.9323339310372584e-01  1.6444673368669852e-01  1.3475055767890451e-01  1.0363039462040834e-01  7.1918247316978851e-02  4.0057621868764458e-02  7.9645402173382715e-03  -2.4197619424077894e-02  -5.6617127582337098e-02  -8.9131381594233020e-02  -1.2172091258867443e-01  -1.5391773486624308e-01  -1.8449573750066761e-01  -2.1295844868617470e-01  -2.4119147960944118e-01  -2.7523411661005298e-01  -3.1023445032913582e-01  -3.1235081685915961e-01  -2.2583078770017678e-01  -5.4395932835678659e-02  2.3130501927749431e-02  1.6832591460837813e-02  1.3406935850094536e-02  1.0314332880127662e-03  -1.9415575905235852e-02  1.9586186608288148e-02  1.2041437751055749e-01  2.3136237003441537e-01  3.0844574168692418e-01  3.1592007908946534e-01  2.8773326380865133e-01  2.5544460696157950e-01  2.2579310080446685e-01  1.9932641006291224e-01  1.6891192365573240e-01  1.3818276805388355e-01  1.0604457107017931e-01  7.4968165572944875e-02  4.2769299218517055e-02  1.1015374801848565e-02  -2.1658334360542590e-02  -5.3671332653506675e-02  -8.6166729298395819e-02  -1.1769101097048314e-01  -1.4972465817180558e-01  -1.8107186893462920e-01  -2.1287819296264796e-01  -2.4219526817806697e-01  -2.7064580740364064e-01  -3.0288631989560344e-01  -3.3870856957486212e-01  -3.3439999923688551e-01  -2.1519983604154300e-01  -2.4794046732700679e-03  9.4306187421379865e-03  2.3095562924535216e-02  1.2813994190734536e-03  -1.1281973208434789e-02  6.7102181979032491e-02  1.9032415493036386e-01  2.9761727838484830e-01  3.4219463370406411e-01  3.2071143773140620e-01  2.8883863702345303e-01  2.5934591119055600e-01  2.3349418646763034e-01  2.0412546274533153e-01  1.7176027694210452e-01  1.4125688764599020e-01  1.0991106978259800e-01  7.8987127475319344e-02  4.6317433900389199e-02  1.4401461001578296e-02  -1.8658653714298985e-02  -5.0863289773993826e-02  -8.3926429252184742e-02  -1.1600680892041149e-01  -1.4835016044528537e-01  -1.7938191326366801e-01  -2.1029629236650882e-01  -2.4065245541414937e-01  -2.7045778614677091e-01  -2.9970037873952227e-01  -3.3347042575426750e-01  -3.6757499901999047e-01  -3.3912352798284373e-01  -1.5770484371648047e-01  5.2278676390843382e-02  4.2229987689946661e-03  -2.1617298836227950e-03  1.1645962771529956e-02  1.2295755038609962e-01  2.5537187565033209e-01  3.4547828318359658e-01  3.5573358949220385e-01  3.2107520305508147e-01  2.9300597344072177e-01  2.6559829356107412e-01  2.3842384298772037e-01  2.0555446767628571e-01  1.7603644867039667e-01  1.4614470919789127e-01  1.1438881221262866e-01  8.2093896958357171e-02  4.9526147559229329e-02  1.7323903226723968e-02  -1.5409045174638220e-02  -4.7799054524702345e-02  -8.0447731525009378e-02  -1.1273574324056786e-01  -1.4505779782882536e-01  -1.7732830133473410e-01  -2.0924020191567502e-01  -2.4063337214824146e-01  -2.7028653639808181e-01  -2.9917980973340796e-01  -3.2845573780506759e-01  -3.6672920455101565e-01  -3.9163653248621638e-01  -3.0775747914251900e-01  -2.3636551200155471e-02  1.0892702062727423e-02  2.1808836619931743e-02  3.8506117189826376e-02  1.8156300209219509e-01  3.0909471098866570e-01  3.7491295733077984e-01  3.6056463363280838e-01  3.2430705172339414e-01  2.9993787803951755e-01  2.7137189954547963e-01  2.4202460425900763e-01  2.1019019355182225e-01  1.8264826987546637e-01  1.4909833249414203e-01  1.1712292043792934e-01  8.5068564022558135e-02  5.3446884546586471e-02  2.0618365491348090e-02  -1.1991143247606553e-02  -4.5108818905724928e-02  -7.7733737486679208e-02  -1.1067467848832803e-01  -1.4271240331631546e-01  -1.7489039266815193e-01  -2.0613257707623547e-01  -2.3854595618464072e-01  -2.7009886120834620e-01  -3.0108949242662431e-01  -3.2828433233276438e-01  -3.5953992560269532e-01  -4.0216354215421835e-01  -3.9471689647020186e-01  -1.9938034654339576e-01  7.7724733412105201e-02  -3.1769911838946341e-02  6.5668743820215494e-02  2.3408611717196048e-01  3.4977765660617477e-01  3.9409219790169725e-01  3.6356506203930783e-01  3.3043848033688555e-01  3.0644279523697288e-01  2.7574779800760180e-01  2.4588687778524979e-01  2.1556423264172628e-01  1.8551582798016253e-01  1.5117789107977855e-01  1.2252584122323787e-01  8.9636862613926505e-02  5.7437448315585067e-02  2.3715925765810920e-02  -8.4849375671180727e-03  -4.1962451874063465e-02  -7.4230047634203405e-02  -1.0756960623020084e-01  -1.3980353581667918e-01  -1.7310442770497642e-01  -2.0471160445233036e-01  -2.3681548203778560e-01  -2.6803824237497675e-01  -3.0031659373760938e-01  -3.3112820353524275e-01  -3.5877444772644373e-01  -3.9490585937592315e-01  -4.3457772452740789e-01  -3.2450444770717041e-01  5.5225370674814686e-02  -6.9486289964053108e-02  8.5069469245316942e-02  2.7758961855992426e-01  3.7936043306623762e-01  4.0640876537361831e-01  3.6740803415908130e-01  3.3788539391662037e-01  3.1224860645254693e-01  2.8016881235199315e-01  2.5087299833291582e-01  2.2028311179094481e-01  1.8845248689832839e-01  1.5701978439952430e-01  1.2713367115705659e-01  9.1334457559577961e-02  6.0359009649672501e-02  2.6962405429251591e-02  -4.9143095702897628e-03  -3.8901669322658594e-02  -7.1153848104405892e-02  -1.0476780489780231e-01  -1.3660337167927997e-01  -1.6975163313947128e-01  -2.0192054634349740e-01  -2.3468392322519629e-01  -2.6686700872534880e-01  -2.9938318226214700e-01  -3.3088107671053968e-01  -3.6241803301904518e-01  -3.9093190843096554e-01  -4.4153839770135306e-01  -4.1647705827287634e-01  -8.1851559826692608e-02  5.4046015035558705e-02  9.4249596142197023e-02  3.0963380331586926e-01  3.9969752645093432e-01  4.1575401447799348e-01  3.7234752876221933e-01  3.4494452221547017e-01  3.1696549509581923e-01  2.8454622272120711e-01  2.5536536435936746e-01  2.2367897267820380e-01  1.9208100000843403e-01  1.6144067032781675e-01  1.2833312916619938e-01  9.5374871606191722e-02  6.5848724523338398e-02  3.0891289142953766e-02  -1.3308146223469878e-03  -3.5459762389420314e-02  -6.7577401102672741e-02  -1.0141837470980387e-01  -1.3374036255602895e-01  -1.6674705752614274e-01  -1.9917693090966143e-01  -2.3203681356846939e-01  -2.6383196615934534e-01  -2.9799998502509428e-01  -3.2992189744109157e-01  -3.6499963240765565e-01  -3.9172936791490609e-01  -4.4146757728477237e-01  -4.7675334617632759e-01  -2.4786190391922031e-01  2.1605052158936566e-01  9.0637262357869466e-02  3.3007612166221922e-01  4.1277451864755299e-01  4.2272698768894112e-01  3.7767166798040991e-01  3.5099670084562740e-01  3.2138108685392991e-01  2.8893227108734010e-01  2.5944166717426526e-01  2.2721311225426505e-01  1.9616941960167228e-01  1.6477234132886009e-01  1.3161742730003326e-01  1.0131892402713245e-01  6.7771636567012308e-02  3.2957752984384865e-02  2.0631556092580924e-03  -3.1943212507041158e-02  -6.4146411405000284e-02  -9.7462494332709676e-02  -1.2998937928753926e-01  -1.6298732520530848e-01  -1.9504254195657822e-01  -2.2918937398885059e-01  -2.6062665696484000e-01  -2.9573359536545496e-01  -3.2693536024041076e-01  -3.6537611255544705e-01  -3.9455094606622410e-01  -4.3580975139714440e-01  -5.0509841580143056e-01  -3.8694006136757525e-01  2.9725643130695795e-01  7.4486860546403924e-02  3.3827253431314735e-01  4.1996030261045042e-01  4.2796549712217230e-01  3.8280111778104148e-01  3.5555955867557820e-01  3.2512690230303332e-01  2.9259418581390073e-01  2.6267360973889603e-01  2.3026389012527307e-01  1.9931919359516570e-01  1.6739499740363417e-01  1.3511179684641941e-01  1.0404181461377547e-01  6.9302096448370862e-02  3.9037063509229246e-02  6.4885185003136243e-03  -2.8069380573214304e-02  -6.0551771861355567e-02  -9.3612139469608849e-02  -1.2558551530311349e-01  -1.5934526393156770e-01  -1.9029699124899913e-01  -2.2516636743458623e-01  -2.5581044422318505e-01  -2.9240684254794064e-01  -3.2333721081902794e-01  -3.6202321378923247e-01  -3.9461933077763017e-01  -4.2915407158315705e-01  -4.9564145548813737e-01  -4.6148004359030365e-01  2.0788706594041181e-01  4.5888450016578312e-02  3.3454154405911729e-01  4.2161963382839357e-01  4.3145379248842708e-01  3.8749156627349296e-01  3.5887410900017747e-01  3.2845256662867761e-01  2.9571630026648021e-01  2.6549010416728730e-01  2.3311203871409708e-01  2.0204964977186371e-01  1.7011241575567057e-01  1.3822116619504485e-01  1.0665521661742042e-01  7.3548834334345919e-02  4.3540747767895766e-02  7.0987400727183202e-03  -2.4332222018921233e-02  -5.5953532162928483e-02  -8.9686487271932319e-02  -1.2018261517495835e-01  -1.5480102509081983e-01  -1.8457553094184906e-01  -2.2046977270144050e-01  -2.5020272431437263e-01  -2.8743033366826293e-01  -3.1788707167342661e-01  -3.5700997636784321e-01  -3.9037486334020316e-01  -4.2272236366181826e-01  -4.7034247580514660e-01  -5.0040827365710472e-01  5.0913233804690795e-02  7.9095992801694846e-03  3.1782662722167282e-01  4.1821894034444501e-01  4.3258846583283816e-01  3.9143633090212626e-01  3.6066508623815241e-01  3.3084899173902210e-01  2.9791290759845968e-01  2.6740761096760696e-01  2.3518312734479124e-01  2.0394687730909150e-01  1.7221746384308526e-01  1.4039483248062218e-01  1.0896274251806773e-01  7.6426815685936386e-02  4.5327740226994880e-02  1.1070367978192249e-02  -1.7979510391579936e-02  -5.1424051321099402e-02  -8.5365486703021853e-02  -1.1416987851221271e-01  -1.4970794916751248e-01  -1.7784611286201066e-01  -2.1455627230979549e-01  -2.4306086160662588e-01  -2.8126404604718430e-01  -3.1088947041395421e-01  -3.5029188183267235e-01  -3.8264582365630223e-01  -4.1931028010388843e-01  -4.4478984460187798e-01  -5.2871838662278792e-01  -8.4739743440878174e-02  -3.4196317295007508e-02  2.8798188764848509e-01  4.0771754372106156e-01  4.3142173223685470e-01  3.9481176066297213e-01  3.6164778657501306e-01  3.3240829866233518e-01  2.9960886773676687e-01  2.6877921038826647e-01  2.3679989755055050e-01  2.0533472000956962e-01  1.7389108000496711e-01  1.4211495407656394e-01  1.1105255819496702e-01  7.9076264375487912e-02  4.7848587002603055e-02  1.6585122441394217e-02  -1.5381127125069352e-02  -4.8425097758242878e-02  -7.9393046227229994e-02  -1.0771592459261152e-01  -1.4391284470827387e-01  -1.6999024063088863e-01  -2.0777332503358242e-01  -2.3448195874629377e-01  -2.7367644457205442e-01  -3.0188106903716505e-01  -3.4283005962391283e-01  -3.7240843055384348e-01  -4.1647853786218758e-01  -4.2526244750251446e-01  -5.4386117905671905e-01  -1.9302075922671424e-01  -6.7566823228261769e-02  2.4217039289988229e-01  3.8846323135337119e-01  4.2561235415314091e-01  3.9703825745874233e-01  3.6165641834744311e-01  3.3272311335646726e-01  3.0044362938426505e-01  2.6915382890032546e-01  2.3754534624556553e-01  2.0591011285361380e-01  1.7476253482474902e-01  1.4323012904131568e-01  1.1219927636007682e-01  8.1519309623409003e-02  4.9612806958803934e-02  1.9919802107438517e-02  -1.2713209187939268e-02  -4.1125406632289495e-02  -7.2144754173581474e-02  -1.0184181181668715e-01  -1.3662944070802960e-01  -1.6092039184265333e-01  -2.0006974648245104e-01  -2.2423662846431899e-01  -2.6483859233071488e-01  -2.9091966814384318e-01  -3.3389302565077106e-01  -3.6046510793568654e-01  -4.1261726307768953e-01  -4.0888587817193373e-01  -5.4912949079345263e-01  -2.7549343369452617e-01  -7.5094309988799166e-02  1.7914605176217960e-01  3.5452398459288975e-01  4.1473151033212646e-01  3.9793544506101930e-01  3.6202785528839793e-01  3.3207000092420824e-01  3.0083527981973823e-01  2.6909781005204342e-01  2.3761259496636461e-01  2.0594740263077971e-01  1.7468798946328828e-01  1.4406662921368052e-01  1.1241473832656600e-01  8.3466511219295006e-02  5.1581181510704815e-02  2.3637637090271911e-02  -8.2662667987937304e-03  -3.5054592291344062e-02  -6.8302016796095960e-02  -9.5637023358181555e-02  -1.2749627551463294e-01  -1.5178803142579031e-01  -1.9096512147904840e-01  -2.1193859463827355e-01  -2.5475600377337471e-01  -2.7783094673100628e-01  -3.2318209535600823e-01  -3.4654448673527039e-01  -4.0571826518754089e-01  -3.9321147783259336e-01  -5.4449209471823201e-01  -3.4210434925742778e-01  -4.5950433541326309e-02  9.9401798775107450e-02  3.0477354195219508e-01  3.9344704986179146e-01  3.9587762482692601e-01  3.6249499606320845e-01  3.3073753159596081e-01  3.0003327571850946e-01  2.6825066613446613e-01  2.3652376024044269e-01  2.0538492836227140e-01  1.7341069980186324e-01  1.4422307612888149e-01  1.1223307722629224e-01  8.4482824048982511e-02  5.2996995542221308e-02  2.6572966624073151e-02  -4.8903041304201407e-03  -3.0341799862633193e-02  -6.2025579740019418e-02  -8.5398896237432270e-02  -1.1733641828965567e-01  -1.4278557424253852e-01  -1.7963754824738246e-01  -1.9854616444703965e-01  -2.4313020053367737e-01  -2.6202705013854377e-01  -3.1039648080448712e-01  -3.3030838901437359e-01  -3.9484004503410591e-01  -3.7540461681040110e-01  -5.3219236314942342e-01  -3.9721633091376152e-01  -1.0368099917703202e-03  2.2975164025211089e-02  2.3472825703657033e-01  3.6116111765043718e-01  3.8826878426176564e-01  3.6376323300400093e-01  3.2983425464933863e-01  2.9863145327906371e-01  2.6721547279062802e-01  2.3442092364197242e-01  2.0409323194013060e-01  1.7121460511163500e-01  1.4293398188697271e-01  1.1118417578020413e-01  8.4850545296682359e-02  5.3846695293039683e-02  2.9320944820083267e-02  -1.2292559673284147e-03  -2.4276828281715190e-02  -5.4829675843100126e-02  -7.7269555708037577e-02  -1.1016865446292014e-01  -1.3286685192245817e-01  -1.6469779515573130e-01  -1.8458450832182111e-01  -2.2937321317897666e-01  -2.4367441998485337e-01  -2.9499809296232055e-01  -3.1124364147436606e-01  -3.7946795797671617e-01  -3.5379365916208377e-01  -5.1245671525271608e-01  -4.4598721964745708e-01  6.5572221704393689e-03  -1.6335693583700094e-02  1.5253896820470336e-01  3.0645511723162483e-01  3.7022014705203043e-01  3.6260052402905441e-01  3.3046312223974661e-01  2.9600362354935533e-01  2.6510937194246731e-01  2.3110443748167242e-01  2.0141407016989554e-01  1.6805434097471866e-01  1.4085367406057794e-01  1.0880648277301258e-01  8.4536141904586040e-02  5.3681783416734415e-02  3.1729461482511281e-02  1.5266015484909537e-03  -1.8774861606034844e-02  -4.9175239774425436e-02  -6.8526177262119667e-02  -9.9405997481359601e-02  -1.