<?xml version="1.0"?>
<VTKFile type="UnstructuredGrid"  version="0.1"  >
<UnstructuredGrid>
<Piece  NumberOfPoints="1089" NumberOfCells="1024">
<Points>
<DataArray  type="Float64"  NumberOfComponents="3"  format="ascii">0 0 0  0.03125 0 0  0.0625 0 0  0.09375 0 0  0.125 0 0  0.15625 0 0  0.1875 0 0  0.21875 0 0  0.25 0 0  0.28125 0 0  0.3125 0 0  0.34375 0 0  0.375 0 0  0.40625 0 0  0.4375 0 0  0.46875 0 0  0.5 0 0  0.53125 0 0  0.5625 0 0  0.59375 0 0  0.625 0 0  0.65625 0 0  0.6875 0 0  0.71875 0 0  0.75 0 0  0.78125 0 0  0.8125 0 0  0.84375 0 0  0.875 0 0  0.90625 0 0  0.9375 0 0  0.96875 0 0  1 0 0  0 0.03125 0  0.03125 0.03125 0  0.0625 0.03125 0  0.09375 0.03125 0  0.125 0.03125 0  0.15625 0.03125 0  0.1875 0.03125 0  0.21875 0.03125 0  0.25 0.03125 0  0.28125 0.03125 0  0.3125 0.03125 0  0.34375 0.03125 0  0.375 0.03125 0  0.40625 0.03125 0  0.4375 0.03125 0  0.46875 0.03125 0  0.5 0.03125 0  0.53125 0.03125 0  0.5625 0.03125 0  0.59375 0.03125 0  0.625 0.03125 0  0.65625 0.03125 0  0.6875 0.03125 0  0.71875 0.03125 0  0.75 0.03125 0  0.78125 0.03125 0  0.8125 0.03125 0  0.84375 0.03125 0  0.875 0.03125 0  0.90625 0.03125 0  0.9375 0.03125 0  0.96875 0.03125 0  1 0.03125 0  0 0.0625 0  0.03125 0.0625 0  0.0625 0.0625 0  0.09375 0.0625 0  0.125 0.0625 0  0.15625 0.0625 0  0.1875 0.0625 0  0.21875 0.0625 0  0.25 0.0625 0  0.28125 0.0625 0  0.3125 0.0625 0  0.34375 0.0625 0  0.375 0.0625 0  0.40625 0.0625 0  0.4375 0.0625 0  0.46875 0.0625 0  0.5 0.0625 0  0.53125 0.0625 0  0.5625 0.0625 0  0.59375 0.0625 0  0.625 0.0625 0  0.65625 0.0625 0  0.6875 0.0625 0  0.71875 0.0625 0  0.75 0.0625 0  0.78125 0.0625 0  0.8125 0.0625 0  0.84375 0.0625 0  0.875 0.0625 0  0.90625 0.0625 0  0.9375 0.0625 0  0.96875 0.0625 0  1 0.0625 0  0 0.09375 0  0.03125 0.09375 0  0.0625 0.09375 0  0.09375 0.09375 0  0.125 0.09375 0  0.15625 0.09375 0  0.1875 0.09375 0  0.21875 0.09375 0  0.25 0.09375 0  0.28125 0.09375 0  0.3125 0.09375 0  0.34375 0.09375 0  0.375 0.09375 0  0.40625 0.09375 0  0.4375 0.09375 0  0.46875 0.09375 0  0.5 0.09375 0  0.53125 0.09375 0  0.5625 0.09375 0  0.59375 0.09375 0  0.625 0.09375 0  0.65625 0.09375 0  0.6875 0.09375 0  0.71875 0.09375 0  0.75 0.09375 0  0.78125 0.09375 0  0.8125 0.09375 0  0.84375 0.09375 0  0.875 0.09375 0  0.90625 0.09375 0  0.9375 0.09375 0  0.96875 0.09375 0  1 0.09375 0  0 0.125 0  0.03125 0.125 0  0.0625 0.125 0  0.09375 0.125 0  0.125 0.125 0  0.15625 0.125 0  0.1875 0.125 0  0.21875 0.125 0  0.25 0.125 0  0.28125 0.125 0  0.3125 0.125 0  0.34375 0.125 0  0.375 0.125 0  0.40625 0.125 0  0.4375 0.125 0  0.46875 0.125 0  0.5 0.125 0  0.53125 0.125 0  0.5625 0.125 0  0.59375 0.125 0  0.625 0.125 0  0.65625 0.125 0  0.6875 0.125 0  0.71875 0.125 0  0.75 0.125 0  0.78125 0.125 0  0.8125 0.125 0  0.84375 0.125 0  0.875 0.125 0  0.90625 0.125 0  0.9375 0.125 0  0.96875 0.125 0  1 0.125 0  0 0.15625 0  0.03125 0.15625 0  0.0625 0.15625 0  0.09375 0.15625 0  0.125 0.15625 0  0.15625 0.15625 0  0.1875 0.15625 0  0.21875 0.15625 0  0.25 0.15625 0  0.28125 0.15625 0  0.3125 0.15625 0  0.34375 0.15625 0  0.375 0.15625 0  0.40625 0.15625 0  0.4375 0.15625 0  0.46875 0.15625 0  0.5 0.15625 0  0.53125 0.15625 0  0.5625 0.15625 0  0.59375 0.15625 0  0.625 0.15625 0  0.65625 0.15625 0  0.6875 0.15625 0  0.71875 0.15625 0  0.75 0.15625 0  0.78125 0.15625 0  0.8125 0.15625 0  0.84375 0.15625 0  0.875 0.15625 0  0.90625 0.15625 0  0.9375 0.15625 0  0.96875 0.15625 0  1 0.15625 0  0 0.1875 0  0.03125 0.1875 0  0.0625 0.1875 0  0.09375 0.1875 0  0.125 0.1875 0  0.15625 0.1875 0  0.1875 0.1875 0  0.21875 0.1875 0  0.25 0.1875 0  0.28125 0.1875 0  0.3125 0.1875 0  0.34375 0.1875 0  0.375 0.1875 0  0.40625 0.1875 0  0.4375 0.1875 0  0.46875 0.1875 0  0.5 0.1875 0  0.53125 0.1875 0  0.5625 0.1875 0  0.59375 0.1875 0  0.625 0.1875 0  0.65625 0.1875 0  0.6875 0.1875 0  0.71875 0.1875 0  0.75 0.1875 0  0.78125 0.1875 0  0.8125 0.1875 0  0.84375 0.1875 0  0.875 0.1875 0  0.90625 0.1875 0  0.9375 0.1875 0  0.96875 0.1875 0  1 0.1875 0  0 0.21875 0  0.03125 0.21875 0  0.0625 0.21875 0  0.09375 0.21875 0  0.125 0.21875 0  0.15625 0.21875 0  0.1875 0.21875 0  0.21875 0.21875 0  0.25 0.21875 0  0.28125 0.21875 0  0.3125 0.21875 0  0.34375 0.21875 0  0.375 0.21875 0  0.40625 0.21875 0  0.4375 0.21875 0  0.46875 0.21875 0  0.5 0.21875 0  0.53125 0.21875 0  0.5625 0.21875 0  0.59375 0.21875 0  0.625 0.21875 0  0.65625 0.21875 0  0.6875 0.21875 0  0.71875 0.21875 0  0.75 0.21875 0  0.78125 0.21875 0  0.8125 0.21875 0  0.84375 0.21875 0  0.875 0.21875 0  0.90625 0.21875 0  0.9375 0.21875 0  0.96875 0.21875 0  1 0.21875 0  0 0.25 0  0.03125 0.25 0  0.0625 0.25 0  0.09375 0.25 0  0.125 0.25 0  0.15625 0.25 0  0.1875 0.25 0  0.21875 0.25 0  0.25 0.25 0  0.28125 0.25 0  0.3125 0.25 0  0.34375 0.25 0  0.375 0.25 0  0.40625 0.25 0  0.4375 0.25 0  0.46875 0.25 0  0.5 0.25 0  0.53125 0.25 0  0.5625 0.25 0  0.59375 0.25 0  0.625 0.25 0  0.65625 0.25 0  0.6875 0.25 0  0.71875 0.25 0  0.75 0.25 0  0.78125 0.25 0  0.8125 0.25 0  0.84375 0.25 0  0.875 0.25 0  0.90625 0.25 0  0.9375 0.25 0  0.96875 0.25 0  1 0.25 0  0 0.28125 0  0.03125 0.28125 0  0.0625 0.28125 0  0.09375 0.28125 0  0.125 0.28125 0  0.15625 0.28125 0  0.1875 0.28125 0  0.21875 0.28125 0  0.25 0.28125 0  0.28125 0.28125 0  0.3125 0.28125 0  0.34375 0.28125 0  0.375 0.28125 0  0.40625 0.28125 0  0.4375 0.28125 0  0.46875 0.28125 0  0.5 0.28125 0  0.53125 0.28125 0  0.5625 0.28125 0  0.59375 0.28125 0  0.625 0.28125 0  0.65625 0.28125 0  0.6875 0.28125 0  0.71875 0.28125 0  0.75 0.28125 0  0.78125 0.28125 0  0.8125 0.28125 0  0.84375 0.28125 0  0.875 0.28125 0  0.90625 0.28125 0  0.9375 0.28125 0  0.96875 0.28125 0  1 0.28125 0  0 0.3125 0  0.03125 0.3125 0  0.0625 0.3125 0  0.09375 0.3125 0  0.125 0.3125 0  0.15625 0.3125 0  0.1875 0.3125 0  0.21875 0.3125 0  0.25 0.3125 0  0.28125 0.3125 0  0.3125 0.3125 0  0.34375 0.3125 0  0.375 0.3125 0  0.40625 0.3125 0  0.4375 0.3125 0  0.46875 0.3125 0  0.5 0.3125 0  0.53125 0.3125 0  0.5625 0.3125 0  0.59375 0.3125 0  0.625 0.3125 0  0.65625 0.3125 0  0.6875 0.3125 0  0.71875 0.3125 0  0.75 0.3125 0  0.78125 0.3125 0  0.8125 0.3125 0  0.84375 0.3125 0  0.875 0.3125 0  0.90625 0.3125 0  0.9375 0.3125 0  0.96875 0.3125 0  1 0.3125 0  0 0.34375 0  0.03125 0.34375 0  0.0625 0.34375 0  0.09375 0.34375 0  0.125 0.34375 0  0.15625 0.34375 0  0.1875 0.34375 0  0.21875 0.34375 0  0.25 0.34375 0  0.28125 0.34375 0  0.3125 0.34375 0  0.34375 0.34375 0  0.375 0.34375 0  0.40625 0.34375 0  0.4375 0.34375 0  0.46875 0.34375 0  0.5 0.34375 0  0.53125 0.34375 0  0.5625 0.34375 0  0.59375 0.34375 0  0.625 0.34375 0  0.65625 0.34375 0  0.6875 0.34375 0  0.71875 0.34375 0  0.75 0.34375 0  0.78125 0.34375 0  0.8125 0.34375 0  0.84375 0.34375 0  0.875 0.34375 0  0.90625 0.34375 0  0.9375 0.34375 0  0.96875 0.34375 0  1 0.34375 0  0 0.375 0  0.03125 0.375 0  0.0625 0.375 0  0.09375 0.375 0  0.125 0.375 0  0.15625 0.375 0  0.1875 0.375 0  0.21875 0.375 0  0.25 0.375 0  0.28125 0.375 0  0.3125 0.375 0  0.34375 0.375 0  0.375 0.375 0  0.40625 0.375 0  0.4375 0.375 0  0.46875 0.375 0  0.5 0.375 0  0.53125 0.375 0  0.5625 0.375 0  0.59375 0.375 0  0.625 0.375 0  0.65625 0.375 0  0.6875 0.375 0  0.71875 0.375 0  0.75 0.375 0  0.78125 0.375 0  0.8125 0.375 0  0.84375 0.375 0  0.875 0.375 0  0.90625 0.375 0  0.9375 0.375 0  0.96875 0.375 0  1 0.375 0  0 0.40625 0  0.03125 0.40625 0  0.0625 0.40625 0  0.09375 0.40625 0  0.125 0.40625 0  0.15625 0.40625 0  0.1875 0.40625 0  0.21875 0.40625 0  0.25 0.40625 0  0.28125 0.40625 0  0.3125 0.40625 0  0.34375 0.40625 0  0.375 0.40625 0  0.40625 0.40625 0  0.4375 0.40625 0  0.46875 0.40625 0  0.5 0.40625 0  0.53125 0.40625 0  0.5625 0.40625 0  0.59375 0.40625 0  0.625 0.40625 0  0.65625 0.40625 0  0.6875 0.40625 0  0.71875 0.40625 0  0.75 0.40625 0  0.78125 0.40625 0  0.8125 0.40625 0  0.84375 0.40625 0  0.875 0.40625 0  0.90625 0.40625 0  0.9375 0.40625 0  0.96875 0.40625 0  1 0.40625 0  0 0.4375 0  0.03125 0.4375 0  0.0625 0.4375 0  0.09375 0.4375 0  0.125 0.4375 0  0.15625 0.4375 0  0.1875 0.4375 0  0.21875 0.4375 0  0.25 0.4375 0  0.28125 0.4375 0  0.3125 0.4375 0  0.34375 0.4375 0  0.375 0.4375 0  0.40625 0.4375 0  0.4375 0.4375 0  0.46875 0.4375 0  0.5 0.4375 0  0.53125 0.4375 0  0.5625 0.4375 0  0.59375 0.4375 0  0.625 0.4375 0  0.65625 0.4375 0  0.6875 0.4375 0  0.71875 0.4375 0  0.75 0.4375 0  0.78125 0.4375 0  0.8125 0.4375 0  0.84375 0.4375 0  0.875 0.4375 0  0.90625 0.4375 0  0.9375 0.4375 0  0.96875 0.4375 0  1 0.4375 0  0 0.46875 0  0.03125 0.46875 0  0.0625 0.46875 0  0.09375 0.46875 0  0.125 0.46875 0  0.15625 0.46875 0  0.1875 0.46875 0  0.21875 0.46875 0  0.25 0.46875 0  0.28125 0.46875 0  0.3125 0.46875 0  0.34375 0.46875 0  0.375 0.46875 0  0.40625 0.46875 0  0.4375 0.46875 0  0.46875 0.46875 0  0.5 0.46875 0  0.53125 0.46875 0  0.5625 0.46875 0  0.59375 0.46875 0  0.625 0.46875 0  0.65625 0.46875 0  0.6875 0.46875 0  0.71875 0.46875 0  0.75 0.46875 0  0.78125 0.46875 0  0.8125 0.46875 0  0.84375 0.46875 0  0.875 0.46875 0  0.90625 0.46875 0  0.9375 0.46875 0  0.96875 0.46875 0  1 0.46875 0  0 0.5 0  0.03125 0.5 0  0.0625 0.5 0  0.09375 0.5 0  0.125 0.5 0  0.15625 0.5 0  0.1875 0.5 0  0.21875 0.5 0  0.25 0.5 0  0.28125 0.5 0  0.3125 0.5 0  0.34375 0.5 0  0.375 0.5 0  0.40625 0.5 0  0.4375 0.5 0  0.46875 0.5 0  0.5 0.5 0  0.53125 0.5 0  0.5625 0.5 0  0.59375 0.5 0  0.625 0.5 0  0.65625 0.5 0  0.6875 0.5 0  0.71875 0.5 0  0.75 0.5 0  0.78125 0.5 0  0.8125 0.5 0  0.84375 0.5 0  0.875 0.5 0  0.90625 0.5 0  0.9375 0.5 0  0.96875 0.5 0  1 0.5 0  0 0.53125 0  0.03125 0.53125 0  0.0625 0.53125 0  0.09375 0.53125 0  0.125 0.53125 0  0.15625 0.53125 0  0.1875 0.53125 0  0.21875 0.53125 0  0.25 0.53125 0  0.28125 0.53125 0  0.3125 0.53125 0  0.34375 0.53125 0  0.375 0.53125 0  0.40625 0.53125 0  0.4375 0.53125 0  0.46875 0.53125 0  0.5 0.53125 0  0.53125 0.53125 0  0.5625 0.53125 0  0.59375 0.53125 0  0.625 0.53125 0  0.65625 0.53125 0  0.6875 0.53125 0  0.71875 0.53125 0  0.75 0.53125 0  0.78125 0.531
[...]
<PointData  Scalars="u_sol"> 
<DataArray  type="Float64"  Name="u_sol"  format="ascii">-4.8015191945102391e-05  -2.0550781657383403e-05  6.5084729363451186e-04  1.2568941917550352e-03  1.5042732918396726e-03  1.8090712579077082e-03  2.3830141864040165e-03  3.2345213348715833e-03  5.1277833512700767e-03  8.5870592367170307e-03  1.2159710377936761e-02  1.3747690160935718e-02  1.1924322326609001e-02  6.3963845956245755e-03  -1.7447466309205150e-03  -1.0165144718481518e-02  -1.6517612859697894e-02  -1.9662150504449340e-02  -1.8257782070060825e-02  -1.1750016807351132e-02  -1.3952630788407014e-03  1.0037173061446997e-02  1.9157713143668181e-02  2.3489331848700366e-02  2.2506035828968738e-02  1.7250796628883052e-02  1.0089504967003345e-02  4.3581442990597115e-03  1.4139101270425839e-03  1.3685087123302135e-04  -2.4101944016241929e-04  -2.9072525355688895e-04  7.8995386321293706e-06  -4.7362624661638210e-04  2.3732328092088938e-03  8.3417368160166316e-03  1.3152155425409021e-02  1.4933588517162449e-02  1.4379628110512769e-02  1.2623217504037255e-02  8.5994134421196102e-03  -1.5107512350436599e-03  -2.1849465192483503e-02  -5.4066492243157488e-02  -9.5796882872181882e-02  -1.4144300827164610e-01  -1.8440611521578665e-01  -2.1899539617413427e-01  -2.4135882627520577e-01  -2.4913837610838524e-01  -2.4089297933942738e-01  -2.1710098737649533e-01  -1.7942111733626129e-01  -1.3092459123403996e-01  -7.6846959659073760e-02  -2.4347088029137924e-02  1.8999057965616507e-02  4.7888177718381227e-02  6.0855879066548546e-02  5.9274459669203680e-02  4.7281705164835791e-02  3.1661571397775430e-02  1.8090007853856900e-02  8.2197310124855223e-03  1.9729816409046501e-03  -3.8735499108339533e-04  -7.6031518971553724e-04  3.8642515249110495e-03  1.1305176829730217e-02  1.5137226073305598e-02  1.3665929770319106e-02  7.5872169352128940e-03  -5.3625433184089251e-03  -3.1148896278583520e-02  -7.3948631624249028e-02  -1.3148638637297425e-01  -1.9511609385051643e-01  -2.5517515517091044e-01  -3.0510844567489687e-01  -3.4217302748716250e-01  -3.6642332484316598e-01  -3.7914864187450242e-01  -3.8165391470625060e-01  -3.7437536001208938e-01  -3.5627894861431886e-01  -3.2620044577420521e-01  -2.8328944658704525e-01  -2.2805138231773711e-01  -1.6413197584827402e-01  -9.9165363343765134e-02  -4.3009117269957355e-02  -2.2896888999622703e-03  2.3019206278951983e-02  3.4292779409812332e-02  3.2816703223515299e-02  2.3587540281335327e-02  1.2883985202017650e-02  3.8352984930676536e-03  -7.0449935513932000e-04  -9.1606193453487843e-04  4.7855857297707492e-03  1.1117084240661469e-02  9.4097101757442403e-03  -1.7284226610312812e-04  -1.9871661537322387e-02  -5.7249342365865430e-02  -1.1522131942775990e-01  -1.8622128179414252e-01  -2.5741943386864730e-01  -3.1872953335133419e-01  -3.6600822268885419e-01  -3.9992405846505397e-01  -4.2324605444508012e-01  -4.3863101690606898e-01  -4.4773242704654126e-01  -4.5122893129847097e-01  -4.4931584384427542e-01  -4.4190647753329693e-01  -4.2739605595354296e-01  -4.0257854353791206e-01  -3.6323980041355247e-01  -3.0614581568526883e-01  -2.3277266303107566e-01  -1.5245911428350781e-01  -8.1074641997776753e-02  -3.1414459352788922e-02  -2.6250089825361972e-03  1.2008864255442437e-02  1.5167218067115264e-02  1.0482473564833245e-02  3.4050622346668271e-03  -6.4789249754038840e-04  -8.5511379342417045e-04  4.8209514417439691e-03  5.7917694670425891e-03  -5.4494756477827524e-03  -2.8874625908029004e-02  -7.1687467304042074e-02  -1.3633022634850087e-01  -2.1223367067664570e-01  -2.8396754454540901e-01  -3.4117270187937687e-01  -3.8129665953727387e-01  -4.0691729863653814e-01  -4.2199311566077391e-01  -4.2986516855677143e-01  -4.3305242691549839e-01  -4.3361587949348418e-01  -4.3329538675551688e-01  -4.3325212653434869e-01  -4.3375678402708323e-01  -4.3432879167881827e-01  -4.3280368186031182e-01  -4.2402241605318775e-01  -3.9957747760478785e-01  -3.5060494010411514e-01  -2.7443562897533413e-01  -1.8141048971852561e-01  -9.4831002337866274e-02  -3.7062004095179166e-02  -9.0218718034640790e-03  2.7741706693660655e-03  4.8934035061225338e-03  1.8621808321351136e-03  -3.8208408018597254e-04  -2.7418518759253908e-04  2.3319319628115724e-03  -6.3433622156266831e-03  -3.0383840934577432e-02  -7.3199199125540418e-02  -1.3785715726405803e-01  -2.1363545197963152e-01  -2.8325035892813744e-01  -3.3519535962131164e-01  -3.6744552243702250e-01  -3.8384160396725164e-01  -3.8957142374696374e-01  -3.8916458612230131e-01  -3.8614724971562125e-01  -3.8288195537276482e-01  -3.8048632740150717e-01  -3.7916996622658089e-01  -3.7893312534081791e-01  -3.8025741221106807e-01  -3.8413030143250360e-01  -3.9147368830067569e-01  -4.0158459384215633e-01  -4.0923072235882324e-01  -4.0247525156203212e-01  -3.6584987538232422e-01  -2.9109810176054973e-01  -1.8910658396487043e-01  -9.1185581564687285e-02  -2.9629772131555310e-02  -6.0615344522220891e-03  8.2624047362022009e-04  7.8648542032694216e-04  -1.7938343681671230e-04  9.3423954745844025e-04  -3.5064077575620964e-03  -2.4351706585126556e-02  -6.3718693088911885e-02  -1.2375288971089718e-01  -1.9634528098604800e-01  -2.6367999949734122e-01  -3.1218358669699370e-01  -3.3912542464061746e-01  -3.4922757348743544e-01  -3.4925164969486572e-01  -3.4524265853558705e-01  -3.4139358013422766e-01  -3.3944089549351208e-01  -3.3910253184845202e-01  -3.3933263498682814e-01  -3.3935360486243271e-01  -3.3894133127656256e-01  -3.3825687509828523e-01  -3.3796152062391716e-01  -3.3965381177801013e-01  -3.4603863776347960e-01  -3.5942585618299550e-01  -3.7678094991337813e-01  -3.8387414052393209e-01  -3.5797455723471511e-01  -2.8449292853808705e-01  -1.7587206800985128e-01  -7.3036103095766941e-02  -1.6080411776339718e-02  -1.0253337904509478e-03  9.9905041794212039e-04  -1.6343979968401657e-04  2.2901859972755049e-03  -1.1474536616226700e-02  -4.5522987585455428e-02  -9.8283383437854144e-02  -1.6535810780230720e-01  -2.3084625132662506e-01  -2.7891559544069022e-01  -3.0444481532626594e-01  -3.1208623615363607e-01  -3.1005398181202565e-01  -3.0581064269865671e-01  -3.0382159242678664e-01  -3.0484543894164390e-01  -3.0741840449811841e-01  -3.1003969801108694e-01  -3.1205434135181698e-01  -3.1333819634821225e-01  -3.1389659337479942e-01  -3.1372777356039594e-01  -3.1268343333592585e-01  -3.1068842642615030e-01  -3.0865549333332204e-01  -3.1004217128484168e-01  -3.2055334950173481e-01  -3.4103701618240395e-01  -3.5589674858558207e-01  -3.3478243410633080e-01  -2.5803113834200347e-01  -1.4361718209795696e-01  -4.4892942960503404e-02  -3.2943018744747547e-03  1.4519656105859966e-03  -2.7258034573464357e-04  3.4599904867990022e-03  -1.9695668266897698e-02  -6.5213820279717019e-02  -1.2464626376383976e-01  -1.8784563673353416e-01  -2.3795760679873379e-01  -2.6608335212987000e-01  -2.7486549468995031e-01  -2.7315990156170605e-01  -2.6972677504572506e-01  -2.6943266956121642e-01  -2.7233692057834136e-01  -2.7616227727150994e-01  -2.7932361179749576e-01  -2.8156715433464780e-01  -2.8316433750752573e-01  -2.8441548503963543e-01  -2.8554448166745100e-01  -2.8664717083825753e-01  -2.8766933823258856e-01  -2.8815212277104990e-01  -2.8702053872335936e-01  -2.8354634222853009e-01  -2.8067756155497298e-01  -2.8716761841523758e-01  -3.0803349500672617e-01  -3.2526025698371819e-01  -3.0048341705986287e-01  -2.1375638989239693e-01  -9.6586793697657491e-02  -1.5579587409799665e-02  1.0584318176278631e-03  -3.3790972036744870e-04  4.3104490886543296e-03  -2.6238863968766280e-02  -7.8518033644460014e-02  -1.3702430866531370e-01  -1.8973743180175459e-01  -2.2358701777067780e-01  -2.3697853669310173e-01  -2.3753883947135565e-01  -2.3506779568248459e-01  -2.3554370380573519e-01  -2.3918737555669453e-01  -2.4332669198079487e-01  -2.4632194381276823e-01  -2.4826632419895281e-01  -2.4970191782040699e-01  -2.5096537871574204e-01  -2.5219610383286251e-01  -2.5342835175667716e-01  -2.5471952743720472e-01  -2.5623618035316159e-01  -2.5818713661342030e-01  -2.6036527748738936e-01  -2.6116983524331022e-01  -2.5805916167183374e-01  -2.5293236791111140e-01  -2.5743240662613404e-01  -2.7909563501910845e-01  -2.9324801823707836e-01  -2.5445225962011653e-01  -1.5288075822833741e-01  -4.4084345379022526e-02  1.1151806175297518e-03  -2.9059363306689005e-04  4.7593609664302924e-03  -2.9483420591530744e-02  -8.2850558782351869e-02  -1.3503127678054705e-01  -1.7553227593609561e-01  -1.9653348148697888e-01  -2.0179696762020041e-01  -2.0085958458983236e-01  -2.0143670996910165e-01  -2.0516148792313821e-01  -2.0951217257346177e-01  -2.1257984713896824e-01  -2.1457762269652311e-01  -2.1628052457335001e-01  -2.1801184970072501e-01  -2.1975011646988002e-01  -2.2138678916640234e-01  -2.2287737302421212e-01  -2.2423934926066727e-01  -2.2549895408891879e-01  -2.2681633188811476e-01  -2.2869323349416032e-01  -2.3152397384922782e-01  -2.3358466500861785e-01  -2.3070656707077264e-01  -2.2457243063575491e-01  -2.3042320799464042e-01  -2.5358037410721695e-01  -2.5604874029086033e-01  -1.9258070821658180e-01  -8.0600123298986096e-02  -3.9099119391700484e-03  1.1697137344618821e-03  4.7933811328522190e-03  -2.8850628305705277e-02  -7.8513868879606166e-02  -1.2186013711173344e-01  -1.5150593662666420e-01  -1.6419988609654421e-01  -1.6653263951682507e-01  -1.6727530327367202e-01  -1.7060055209206382e-01  -1.7516790699962140e-01  -1.7867800058801203e-01  -1.8100018894107281e-01  -1.8305314862411109e-01  -1.8522110438836589e-01  -1.8738662540799228e-01  -1.8941254111761660e-01  -1.9129419401697534e-01  -1.9307751951526417e-01  -1.9478623305263770e-01  -1.9639870122409367e-01  -1.9779710456441249e-01  -1.9891539940066236e-01  -2.0038468052968972e-01  -2.0326333016911027e-01  -2.0556638897424054e-01  -2.0172132989996769e-01  -1.9583628113664581e-01  -2.0699883047318801e-01  -2.2806264877581087e-01  -2.0515187603374246e-01  -1.1265290240918982e-01  -1.7077766064419631e-02  4.5827212826626187e-03  4.4920091664872970e-03  -2.4876988778733670e-02  -6.7564710824491434e-02  -1.0173624261723672e-01  -1.2295198534078480e-01  -1.3112561936131858e-01  -1.3333685863274111e-01  -1.3607802215837064e-01  -1.4053745956188474e-01  -1.4466288880026143e-01  -1.4751132764558586e-01  -1.4984218423834705e-01  -1.5225042139307765e-01  -1.5463844402573362e-01  -1.5683874051003394e-01  -1.5888314602722392e-01  -1.6086108096216750e-01  -1.6282203980452706e-01  -1.6478543796570447e-01  -1.6676763365520930e-01  -1.6875925335845274e-01  -1.7053834355979572e-01  -1.7171975889317931e-01  -1.7301412258085447e-01  -1.7599131242670835e-01  -1.7747341942233838e-01  -1.7148260259773015e-01  -1.6910221101764633e-01  -1.8757270067104420e-01  -1.9318448839317179e-01  -1.3114661501264818e-01  -3.1203705420200858e-02  8.1065427093536136e-03  3.8154487765348897e-03  -1.8553236677173238e-02  -5.2525941748541333e-02  -7.8199624893750985e-02  -9.3284462574905858e-02  -9.9296114236852501e-02  -1.0224325347457063e-01  -1.0611522557778581e-01  -1.1056111602051671e-01  -1.1407886863218132e-01  -1.1671728763781765e-01  -1.1921843368048043e-01  -1.2171733435313832e-01  -1.2403544538434416e-01  -1.2619248081292536e-01  -1.2830699684602495e-01  -1.3043167017449761e-01  -1.3257856836796605e-01  -1.3475662445294706e-01  -1.3696057046315283e-01  -1.3919736556552978e-01  -1.4152390951306573e-01  -1.4367555542912383e-01  -1.4498757807197268e-01  -1.4651376420274742e-01  -1.4973025848214891e-01  -1.4875179159970739e-01  -1.4142123034122653e-01  -1.4839034535537562e-01  -1.6598366741311496e-01  -1.3385251162811340e-01  -4.1796190118412499e-02  1.0232726718323903e-02  2.9106529938718994e-03  -1.1008965744127996e-02  -3.5428030830891397e-02  -5.3605852322654982e-02  -6.4176197263064616e-02  -6.9159357291140020e-02  -7.2674670476720646e-02  -7.6785506611859358e-02  -8.0746534710645732e-02  -8.3810995894498155e-02  -8.6371057068771365e-02  -8.8860403377677227e-02  -9.1231602818093130e-02  -9.3440104886376676e-02  -9.5602537104628141e-02  -9.7801802192298767e-02  -1.0005932201939929e-01  -1.0239355960745705e-01  -1.0481822623291025e-01  -1.0733051001141872e-01  -1.0988439409626045e-01  -1.1243988104619469e-01  -1.1512336889220753e-01  -1.1756243310179021e-01  -1.1900101676889951e-01  -1.2134497919003912e-01  -1.2404177009591914e-01  -1.1897077397536307e-01  -1.1641893887972471e-01  -1.3345691520086367e-01  -1.2423952668852026e-01  -4.7518232177727354e-02  1.0664792015969034e-02  1.6612201419022906e-03  -3.0731700000115269e-03  -1.7631818247795257e-02  -2.9157764885101873e-02  -3.6185304958937653e-02  -4.0477172352791746e-02  -4.4125404989004552e-02  -4.7910717458143993e-02  -5.1253654739598933e-02  -5.3940166860931553e-02  -5.6334678507130670e-02  -5.8630242239654524e-02  -6.0797355066754800e-02  -6.2894191748806186e-02  -6.5027611327294246e-02  -6.7248200341158554e-02  -6.9588387336108101e-02  -7.2082627070363156e-02  -7.4748965931784719e-02  -7.7586168119662541e-02  -8.0584833528076674e-02  -8.3651698429844309e-02  -8.6690119861090362e-02  -8.9883136374173458e-02  -9.2532231779494017e-02  -9.4426767081528362e-02  -9.8042829105883120e-02  -9.7559247096649690e-02  -9.1433005512299048e-02  -1.0239627506479354e-01  -1.0761304659352727e-01  -4.8557975421215996e-02  9.8940511537323247e-03  -1.5017709392473993e-04  5.0719742154058996e-03  2.5827446533612141e-05  -5.2880112114351693e-03  -9.2540320887951333e-03  -1.2837504426028414e-02  -1.6263289610058344e-02  -1.9438673004506989e-02  -2.2121967819349012e-02  -2.4397270532885623e-02  -2.6496672682340613e-02  -2.8488098499692020e-02  -3.0402578391309824e-02  -3.2335588676460157e-02  -3.4369930532476139e-02  -3.6558720543526206e-02  -3.8953551672260348e-02  -4.1595241489091057e-02  -4.4504870867687750e-02  -4.7683376855402519e-02  -5.1110026505000586e-02  -5.4777941224490312e-02  -5.8531509916086404e-02  -6.2286609213218949e-02  -6.6162953166680347e-02  -6.9029088892762450e-02  -7.2462084221897496e-02  -7.5704182170075837e-02  -7.0918246130177068e-02  -7.5736580293857922e-02  -8.8583964947326010e-02  -4.6248130926214583e-02  8.5710920407541889e-03  -1.7566052437776093e-03  1.2770162304332333e-02  1.7392662909309232e-02  1.7735769809423003e-02  1.6994355730147698e-02  1.4131119124921002e-02  1.1151717041070973e-02  8.6712765019971196e-03  6.7017662974321636e-03  4.9088762759415322e-03  3.2095467974608909e-03  1.6044237216063049e-03  9.9143073528293957e-06  -1.6841595239657236e-03  -3.5513357091735216e-03  -5.6591137593915673e-03  -8.0729335314639866e-03  -1.0840902961654103e-02  -1.3992720294257664e-02  -1.7538726731858377e-02  -2.1462930583105295e-02  -2.5722681712384791e-02  -3.0302498735755357e-02  -3.4959101530781835e-02  -3.9783708100542804e-02  -4.4350160772194065e-02  -4.8211046948336257e-02  -5.3574648705312561e-02  -5.2618962987653818e-02  -5.3835714980545096e-02  -7.0064777500617653e-02  -4.2025368424693385e-02  7.1446238759331430e-03  -2.9867989153858441e-03  1.9066881485268174e-02  3.4217319590021174e-02  3.9916220804954980e-02  4.2729273776847460e-02  4.0859073715346639e-02  3.8291709801266463e-02  3.6499564010693750e-02  3.5269051567171590e-02  3.4066599032644716e-02  3.2842194659028795e-02  3.1699209544633497e-02  3.0511898600334739e-02  2.9141529670572566e-02  2.7512834479958562e-02  2.5547396881582137e-02  2.3164124924892959e-02  2.0302477976473467e-02  1.6920330984682434e-02  1.2999744371401426e-02  8.5386310984073080e-03  3.5697874839148011e-03  -1.8443945860541066e-03  -7.6312227779895278e-03  -1.3572874084376185e-02  -1.9782064459119092e-02  -2.5220460824597141e-02  -3.1780724305743822e-02  -3.5213343159809993e-02  -3.5882807602842716e-02  -5.3377776110517715e-02  -3.7039918111271893e-02  5.8224480385844100e-03  -4.1118196573473962e-03  2.3401828148776501e-02  4.9687806093583864e-02  6.1371754984155050e-02  6.7861347837287658e-02  6.7691701822482298e-02  6.5361283288231320e-02  6.4124953105550497e-02  6.3625915653114595e-02  6.3131267933679430e-02  6.2482281996523191e-02  6.1857316703020540e-02  6.1173033151480295e-02  6.0231706874329730e-02  5.8926422652879742e-02  5.7173683455753174e-02  5.4880430357837129e-02  5.1967058043302317e-02  4.8378070391278095e-02  4.4079448466884524e-02  3.9059704308841814e-02  3.3324816199955379e-02  2.6948626596271511e-02  1.9989614498415850e-02  1.2579340218920794e-02  4.8298350495751419e-03  -2.8885363399938058e-03  -1.0761492945867760e-02  -1.8065319700953458e-02  -2.0821323470456801e-02  -3.8839891987863404e-02  -3.1995320478304910e-02  4.6646160740742909e-03  -4.8735215208104560e-03  2.5371070374658657e-02  6.2635882363743151e-02  8.1810353289793913e-02  9.2194845120148972e-02  9.4606864094121904e-02  9.2641692226516817e-02  9.1579007751174266e-02  9.1771904973808410e-02  9.2084466020154590e-02  9.2163565692468127e-02  9.2143050021045739e-02  9.2042705261554697e-02  9.1653771201174281e-02  9.0792417754481797e-02  8.9347653118934556e-02  8.7219026356248466e-02  8.4312769689616637e-02  8.0553936321702324e-02  7.5887910523231336e-02  7.0279435303489873e-02  6.3744655083758289e-02  5.6329442913673929e-02  4.8072742708580050e-02  3.9051106006546141e-02  2.9478576758207409e-02  1.9457718367818184e-02  9.3855475462542755e-03  -8.6212347172807415e-04  -7.7548369155272592e-03  -2.6249250247033461e-02  -2.7222027278403869e-02  3.7292694182646273e-03  -5.1627519163340079e-03  2.4763751283983636e-02  7.1480502203830495e-02  1.0027630957465927e-01  1.1537676772532997e-01  1.2119030036272870e-01  1.2036415130138922e-01  1.1906874855301736e-01  1.1968371016818077e-01  1.2091508214281989e-01  1.2191376544215897e-01  1.2266744573472634e-01  1.2324821296048880e-01  1.2351605358801301e-01  1.2323610532892584e-01  1.2222727924852109e-01  1.2036186229146933e-01  1.1752983036065340e-01  1.1364134605995621e-01  1.0861907951914530e-01  1.0242632841843057e-01  9.5077752402189297e-02  8.6569001761720873e-02  7.6876269358481977e-02  6.6133388646972088e-02  5.4471413642981505e-02  4.2084124677447841e-02  2.9201400308735154e-02  1.6247301360673164e-02  4.3041760241919512e-03  -1.5436899177188134e-02  -2.2755804641865860e-02  3.0110989965031480e-03  -4.7093221183629993e-03  2.1512071245628209e-02  7.4556187808098917e-02  1.1479968417241593e-01  1.3656365183979319e-01  1.4660351795296966e-01  1.4823112679606842e-01  1.4693214146521047e-01  1.4739217317836620e-01  1.4946913460235853e-01  1.5165565311626991e-01  1.5346280319834707e-01  1.5491064492203982e-01  1.5594151950455376e-01  1.5635004788273038e-01  1.5590493945949985e-01  1.5442140708572288e-01  1.5176389103431381e-01  1.4781685398501565e-01  1.4250304475599126e-01  1.3579004100377320e-01  1.2763153726888621e-01  1.1793359884132865e-01  1.0671426361936409e-01  9.4135129096748635e-02  8.0243764856239783e-02  6.5173032878648340e-02  4.9413498181498282e-02  3.3131438122524934e-02  1.6134090655395915e-02  -6.3281600015459650e-03  -1.8596219381038396e-02  2.4866936777890565e-03  -3.8114938705078741e-03  1.6383080975369831e-02  7.0582419825186760e-02  1.2249499432903764e-01  1.5390390349596919e-01  1.6957135757346189e-01  1.7512617993754664e-01  1.7513059620905330e-01  1.7518478883084029e-01  1.7754879076117724e-01  1.8103205263326327e-01  1.8433367980623003e-01  1.8705356847882831e-01  1.8910886586666714e-01  1.9036440154036549e-01  1.9061154894284063e-01  1.8964226628514289e-01  1.8728094120254773e-01  1.8340611276651334e-01  1.7791620199853997e-01  1.7070180707260865e-01  1.6165555299786516e-01  1.5069830486814631e-01  1.3795425119314575e-01  1.2350053767682760e-01  1.0712327868943020e-01  8.9225974211089201e-02  7.0431934176761898e-02  5.0232076032809547e-02  2.7837201744863063e-02  1.1323937206402014e-03  -1.4879993590048086e-02  2.1258461120503714e-03  -2.1927978606462303e-03  9.9696732408101896e-03  5.9779478282944838e-02  1.2062138967781544e-01  1.6440510295915450e-01  1.8844663575702575e-01  1.9958372919287454e-01  2.0311096613806764e-01  2.0395998626450576e-01  2.0618069240681405e-01  2.1043555347420850e-01  2.1536538208557654e-01  2.1983669186308519e-01  2.2338041019566623e-01  2.2579960083008233e-01  2.2692799996471383e