<?xml version="1.0"?>
<VTKFile type="UnstructuredGrid"  version="0.1"  >
<UnstructuredGrid>
<Piece  NumberOfPoints="1089" NumberOfCells="1024">
<Points>
<DataArray  type="Float64"  NumberOfComponents="3"  format="ascii">0 0 0  0.03125 0 0  0.0625 0 0  0.09375 0 0  0.125 0 0  0.15625 0 0  0.1875 0 0  0.21875 0 0  0.25 0 0  0.28125 0 0  0.3125 0 0  0.34375 0 0  0.375 0 0  0.40625 0 0  0.4375 0 0  0.46875 0 0  0.5 0 0  0.53125 0 0  0.5625 0 0  0.59375 0 0  0.625 0 0  0.65625 0 0  0.6875 0 0  0.71875 0 0  0.75 0 0  0.78125 0 0  0.8125 0 0  0.84375 0 0  0.875 0 0  0.90625 0 0  0.9375 0 0  0.96875 0 0  1 0 0  0 0.03125 0  0.03125 0.03125 0  0.0625 0.03125 0  0.09375 0.03125 0  0.125 0.03125 0  0.15625 0.03125 0  0.1875 0.03125 0  0.21875 0.03125 0  0.25 0.03125 0  0.28125 0.03125 0  0.3125 0.03125 0  0.34375 0.03125 0  0.375 0.03125 0  0.40625 0.03125 0  0.4375 0.03125 0  0.46875 0.03125 0  0.5 0.03125 0  0.53125 0.03125 0  0.5625 0.03125 0  0.59375 0.03125 0  0.625 0.03125 0  0.65625 0.03125 0  0.6875 0.03125 0  0.71875 0.03125 0  0.75 0.03125 0  0.78125 0.03125 0  0.8125 0.03125 0  0.84375 0.03125 0  0.875 0.03125 0  0.90625 0.03125 0  0.9375 0.03125 0  0.96875 0.03125 0  1 0.03125 0  0 0.0625 0  0.03125 0.0625 0  0.0625 0.0625 0  0.09375 0.0625 0  0.125 0.0625 0  0.15625 0.0625 0  0.1875 0.0625 0  0.21875 0.0625 0  0.25 0.0625 0  0.28125 0.0625 0  0.3125 0.0625 0  0.34375 0.0625 0  0.375 0.0625 0  0.40625 0.0625 0  0.4375 0.0625 0  0.46875 0.0625 0  0.5 0.0625 0  0.53125 0.0625 0  0.5625 0.0625 0  0.59375 0.0625 0  0.625 0.0625 0  0.65625 0.0625 0  0.6875 0.0625 0  0.71875 0.0625 0  0.75 0.0625 0  0.78125 0.0625 0  0.8125 0.0625 0  0.84375 0.0625 0  0.875 0.0625 0  0.90625 0.0625 0  0.9375 0.0625 0  0.96875 0.0625 0  1 0.0625 0  0 0.09375 0  0.03125 0.09375 0  0.0625 0.09375 0  0.09375 0.09375 0  0.125 0.09375 0  0.15625 0.09375 0  0.1875 0.09375 0  0.21875 0.09375 0  0.25 0.09375 0  0.28125 0.09375 0  0.3125 0.09375 0  0.34375 0.09375 0  0.375 0.09375 0  0.40625 0.09375 0  0.4375 0.09375 0  0.46875 0.09375 0  0.5 0.09375 0  0.53125 0.09375 0  0.5625 0.09375 0  0.59375 0.09375 0  0.625 0.09375 0  0.65625 0.09375 0  0.6875 0.09375 0  0.71875 0.09375 0  0.75 0.09375 0  0.78125 0.09375 0  0.8125 0.09375 0  0.84375 0.09375 0  0.875 0.09375 0  0.90625 0.09375 0  0.9375 0.09375 0  0.96875 0.09375 0  1 0.09375 0  0 0.125 0  0.03125 0.125 0  0.0625 0.125 0  0.09375 0.125 0  0.125 0.125 0  0.15625 0.125 0  0.1875 0.125 0  0.21875 0.125 0  0.25 0.125 0  0.28125 0.125 0  0.3125 0.125 0  0.34375 0.125 0  0.375 0.125 0  0.40625 0.125 0  0.4375 0.125 0  0.46875 0.125 0  0.5 0.125 0  0.53125 0.125 0  0.5625 0.125 0  0.59375 0.125 0  0.625 0.125 0  0.65625 0.125 0  0.6875 0.125 0  0.71875 0.125 0  0.75 0.125 0  0.78125 0.125 0  0.8125 0.125 0  0.84375 0.125 0  0.875 0.125 0  0.90625 0.125 0  0.9375 0.125 0  0.96875 0.125 0  1 0.125 0  0 0.15625 0  0.03125 0.15625 0  0.0625 0.15625 0  0.09375 0.15625 0  0.125 0.15625 0  0.15625 0.15625 0  0.1875 0.15625 0  0.21875 0.15625 0  0.25 0.15625 0  0.28125 0.15625 0  0.3125 0.15625 0  0.34375 0.15625 0  0.375 0.15625 0  0.40625 0.15625 0  0.4375 0.15625 0  0.46875 0.15625 0  0.5 0.15625 0  0.53125 0.15625 0  0.5625 0.15625 0  0.59375 0.15625 0  0.625 0.15625 0  0.65625 0.15625 0  0.6875 0.15625 0  0.71875 0.15625 0  0.75 0.15625 0  0.78125 0.15625 0  0.8125 0.15625 0  0.84375 0.15625 0  0.875 0.15625 0  0.90625 0.15625 0  0.9375 0.15625 0  0.96875 0.15625 0  1 0.15625 0  0 0.1875 0  0.03125 0.1875 0  0.0625 0.1875 0  0.09375 0.1875 0  0.125 0.1875 0  0.15625 0.1875 0  0.1875 0.1875 0  0.21875 0.1875 0  0.25 0.1875 0  0.28125 0.1875 0  0.3125 0.1875 0  0.34375 0.1875 0  0.375 0.1875 0  0.40625 0.1875 0  0.4375 0.1875 0  0.46875 0.1875 0  0.5 0.1875 0  0.53125 0.1875 0  0.5625 0.1875 0  0.59375 0.1875 0  0.625 0.1875 0  0.65625 0.1875 0  0.6875 0.1875 0  0.71875 0.1875 0  0.75 0.1875 0  0.78125 0.1875 0  0.8125 0.1875 0  0.84375 0.1875 0  0.875 0.1875 0  0.90625 0.1875 0  0.9375 0.1875 0  0.96875 0.1875 0  1 0.1875 0  0 0.21875 0  0.03125 0.21875 0  0.0625 0.21875 0  0.09375 0.21875 0  0.125 0.21875 0  0.15625 0.21875 0  0.1875 0.21875 0  0.21875 0.21875 0  0.25 0.21875 0  0.28125 0.21875 0  0.3125 0.21875 0  0.34375 0.21875 0  0.375 0.21875 0  0.40625 0.21875 0  0.4375 0.21875 0  0.46875 0.21875 0  0.5 0.21875 0  0.53125 0.21875 0  0.5625 0.21875 0  0.59375 0.21875 0  0.625 0.21875 0  0.65625 0.21875 0  0.6875 0.21875 0  0.71875 0.21875 0  0.75 0.21875 0  0.78125 0.21875 0  0.8125 0.21875 0  0.84375 0.21875 0  0.875 0.21875 0  0.90625 0.21875 0  0.9375 0.21875 0  0.96875 0.21875 0  1 0.21875 0  0 0.25 0  0.03125 0.25 0  0.0625 0.25 0  0.09375 0.25 0  0.125 0.25 0  0.15625 0.25 0  0.1875 0.25 0  0.21875 0.25 0  0.25 0.25 0  0.28125 0.25 0  0.3125 0.25 0  0.34375 0.25 0  0.375 0.25 0  0.40625 0.25 0  0.4375 0.25 0  0.46875 0.25 0  0.5 0.25 0  0.53125 0.25 0  0.5625 0.25 0  0.59375 0.25 0  0.625 0.25 0  0.65625 0.25 0  0.6875 0.25 0  0.71875 0.25 0  0.75 0.25 0  0.78125 0.25 0  0.8125 0.25 0  0.84375 0.25 0  0.875 0.25 0  0.90625 0.25 0  0.9375 0.25 0  0.96875 0.25 0  1 0.25 0  0 0.28125 0  0.03125 0.28125 0  0.0625 0.28125 0  0.09375 0.28125 0  0.125 0.28125 0  0.15625 0.28125 0  0.1875 0.28125 0  0.21875 0.28125 0  0.25 0.28125 0  0.28125 0.28125 0  0.3125 0.28125 0  0.34375 0.28125 0  0.375 0.28125 0  0.40625 0.28125 0  0.4375 0.28125 0  0.46875 0.28125 0  0.5 0.28125 0  0.53125 0.28125 0  0.5625 0.28125 0  0.59375 0.28125 0  0.625 0.28125 0  0.65625 0.28125 0  0.6875 0.28125 0  0.71875 0.28125 0  0.75 0.28125 0  0.78125 0.28125 0  0.8125 0.28125 0  0.84375 0.28125 0  0.875 0.28125 0  0.90625 0.28125 0  0.9375 0.28125 0  0.96875 0.28125 0  1 0.28125 0  0 0.3125 0  0.03125 0.3125 0  0.0625 0.3125 0  0.09375 0.3125 0  0.125 0.3125 0  0.15625 0.3125 0  0.1875 0.3125 0  0.21875 0.3125 0  0.25 0.3125 0  0.28125 0.3125 0  0.3125 0.3125 0  0.34375 0.3125 0  0.375 0.3125 0  0.40625 0.3125 0  0.4375 0.3125 0  0.46875 0.3125 0  0.5 0.3125 0  0.53125 0.3125 0  0.5625 0.3125 0  0.59375 0.3125 0  0.625 0.3125 0  0.65625 0.3125 0  0.6875 0.3125 0  0.71875 0.3125 0  0.75 0.3125 0  0.78125 0.3125 0  0.8125 0.3125 0  0.84375 0.3125 0  0.875 0.3125 0  0.90625 0.3125 0  0.9375 0.3125 0  0.96875 0.3125 0  1 0.3125 0  0 0.34375 0  0.03125 0.34375 0  0.0625 0.34375 0  0.09375 0.34375 0  0.125 0.34375 0  0.15625 0.34375 0  0.1875 0.34375 0  0.21875 0.34375 0  0.25 0.34375 0  0.28125 0.34375 0  0.3125 0.34375 0  0.34375 0.34375 0  0.375 0.34375 0  0.40625 0.34375 0  0.4375 0.34375 0  0.46875 0.34375 0  0.5 0.34375 0  0.53125 0.34375 0  0.5625 0.34375 0  0.59375 0.34375 0  0.625 0.34375 0  0.65625 0.34375 0  0.6875 0.34375 0  0.71875 0.34375 0  0.75 0.34375 0  0.78125 0.34375 0  0.8125 0.34375 0  0.84375 0.34375 0  0.875 0.34375 0  0.90625 0.34375 0  0.9375 0.34375 0  0.96875 0.34375 0  1 0.34375 0  0 0.375 0  0.03125 0.375 0  0.0625 0.375 0  0.09375 0.375 0  0.125 0.375 0  0.15625 0.375 0  0.1875 0.375 0  0.21875 0.375 0  0.25 0.375 0  0.28125 0.375 0  0.3125 0.375 0  0.34375 0.375 0  0.375 0.375 0  0.40625 0.375 0  0.4375 0.375 0  0.46875 0.375 0  0.5 0.375 0  0.53125 0.375 0  0.5625 0.375 0  0.59375 0.375 0  0.625 0.375 0  0.65625 0.375 0  0.6875 0.375 0  0.71875 0.375 0  0.75 0.375 0  0.78125 0.375 0  0.8125 0.375 0  0.84375 0.375 0  0.875 0.375 0  0.90625 0.375 0  0.9375 0.375 0  0.96875 0.375 0  1 0.375 0  0 0.40625 0  0.03125 0.40625 0  0.0625 0.40625 0  0.09375 0.40625 0  0.125 0.40625 0  0.15625 0.40625 0  0.1875 0.40625 0  0.21875 0.40625 0  0.25 0.40625 0  0.28125 0.40625 0  0.3125 0.40625 0  0.34375 0.40625 0  0.375 0.40625 0  0.40625 0.40625 0  0.4375 0.40625 0  0.46875 0.40625 0  0.5 0.40625 0  0.53125 0.40625 0  0.5625 0.40625 0  0.59375 0.40625 0  0.625 0.40625 0  0.65625 0.40625 0  0.6875 0.40625 0  0.71875 0.40625 0  0.75 0.40625 0  0.78125 0.40625 0  0.8125 0.40625 0  0.84375 0.40625 0  0.875 0.40625 0  0.90625 0.40625 0  0.9375 0.40625 0  0.96875 0.40625 0  1 0.40625 0  0 0.4375 0  0.03125 0.4375 0  0.0625 0.4375 0  0.09375 0.4375 0  0.125 0.4375 0  0.15625 0.4375 0  0.1875 0.4375 0  0.21875 0.4375 0  0.25 0.4375 0  0.28125 0.4375 0  0.3125 0.4375 0  0.34375 0.4375 0  0.375 0.4375 0  0.40625 0.4375 0  0.4375 0.4375 0  0.46875 0.4375 0  0.5 0.4375 0  0.53125 0.4375 0  0.5625 0.4375 0  0.59375 0.4375 0  0.625 0.4375 0  0.65625 0.4375 0  0.6875 0.4375 0  0.71875 0.4375 0  0.75 0.4375 0  0.78125 0.4375 0  0.8125 0.4375 0  0.84375 0.4375 0  0.875 0.4375 0  0.90625 0.4375 0  0.9375 0.4375 0  0.96875 0.4375 0  1 0.4375 0  0 0.46875 0  0.03125 0.46875 0  0.0625 0.46875 0  0.09375 0.46875 0  0.125 0.46875 0  0.15625 0.46875 0  0.1875 0.46875 0  0.21875 0.46875 0  0.25 0.46875 0  0.28125 0.46875 0  0.3125 0.46875 0  0.34375 0.46875 0  0.375 0.46875 0  0.40625 0.46875 0  0.4375 0.46875 0  0.46875 0.46875 0  0.5 0.46875 0  0.53125 0.46875 0  0.5625 0.46875 0  0.59375 0.46875 0  0.625 0.46875 0  0.65625 0.46875 0  0.6875 0.46875 0  0.71875 0.46875 0  0.75 0.46875 0  0.78125 0.46875 0  0.8125 0.46875 0  0.84375 0.46875 0  0.875 0.46875 0  0.90625 0.46875 0  0.9375 0.46875 0  0.96875 0.46875 0  1 0.46875 0  0 0.5 0  0.03125 0.5 0  0.0625 0.5 0  0.09375 0.5 0  0.125 0.5 0  0.15625 0.5 0  0.1875 0.5 0  0.21875 0.5 0  0.25 0.5 0  0.28125 0.5 0  0.3125 0.5 0  0.34375 0.5 0  0.375 0.5 0  0.40625 0.5 0  0.4375 0.5 0  0.46875 0.5 0  0.5 0.5 0  0.53125 0.5 0  0.5625 0.5 0  0.59375 0.5 0  0.625 0.5 0  0.65625 0.5 0  0.6875 0.5 0  0.71875 0.5 0  0.75 0.5 0  0.78125 0.5 0  0.8125 0.5 0  0.84375 0.5 0  0.875 0.5 0  0.90625 0.5 0  0.9375 0.5 0  0.96875 0.5 0  1 0.5 0  0 0.53125 0  0.03125 0.53125 0  0.0625 0.53125 0  0.09375 0.53125 0  0.125 0.53125 0  0.15625 0.53125 0  0.1875 0.53125 0  0.21875 0.53125 0  0.25 0.53125 0  0.28125 0.53125 0  0.3125 0.53125 0  0.34375 0.53125 0  0.375 0.53125 0  0.40625 0.53125 0  0.4375 0.53125 0  0.46875 0.53125 0  0.5 0.53125 0  0.53125 0.53125 0  0.5625 0.53125 0  0.59375 0.53125 0  0.625 0.53125 0  0.65625 0.53125 0  0.6875 0.53125 0  0.71875 0.53125 0  0.75 0.53125 0  0.78125 0.531
[...]
<PointData  Scalars="v_sol"> 
<DataArray  type="Float64"  Name="v_sol"  format="ascii">3.3362358492423250e-05  4.6430633112598107e-04  5.8400067095506906e-04  3.5901577549440509e-04  9.4178648535544270e-05  -1.6548728443213333e-05  -6.2541397532054892e-05  -2.4977540043185980e-04  -7.5383554330162180e-04  -1.7715396396490340e-03  -3.1561057085594197e-03  -4.3050290714440609e-03  -4.7316531951656611e-03  -4.3253803923764128e-03  -3.2587416184416567e-03  -1.7858297617563735e-03  1.8416540992840215e-04  2.1259447691038802e-03  3.4969664905520957e-03  4.4913720184779349e-03  5.0452993782235840e-03  5.0797932491554749e-03  4.5370249239315421e-03  3.4363053106119526e-03  1.9372864583473270e-03  -7.5401174058060613e-05  -1.5240636176501946e-03  -1.8647153926507807e-03  -1.6838702506050240e-03  -1.1718595737154551e-03  -7.4090812402351832e-04  -3.7077585781814589e-04  -7.5323321303789602e-06  1.0090804195440316e-04  -2.4720330519706619e-03  -3.1751464176513447e-03  -1.8035879748475082e-03  -4.0721248029539211e-04  5.2286847384743341e-05  2.6711861598528638e-04  1.2702453542342096e-03  3.4707270127159748e-03  7.7559708110890796e-03  1.3909548840779551e-02  1.9667237882359082e-02  2.3028435733450422e-02  2.2993305648385219e-02  1.9326947019263675e-02  1.2374134751605911e-02  3.0541911739134482e-03  -7.1474899983280651e-03  -1.7108558667468719e-02  -2.5650375600569181e-02  -3.0859536317824940e-02  -3.1120243939866090e-02  -2.5981595612358476e-02  -1.6908860735424341e-02  -6.5897350683381461e-03  3.1413209157617134e-03  9.2662568023920370e-03  1.0215218425385064e-02  8.3602929850403324e-03  5.7348187794124331e-03  3.6181365695248857e-03  1.7570306530888082e-03  -1.7860595131912371e-04  -4.0656196108042314e-04  -8.8991427172962281e-03  -9.6413474238874215e-03  -4.5009316127642947e-03  8.6334934500025505e-04  4.4045038239868776e-03  9.2333211395015762e-03  1.9623093353630758e-02  3.5832721937960464e-02  5.3630652165968122e-02  6.7445236906255812e-02  7.3353219624978108e-02  7.0301420551432667e-02  5.9478053418372027e-02  4.2996727653164243e-02  2.2926913434739554e-02  7.7779433415310422e-04  -2.2624787198160905e-02  -4.6119380121958209e-02  -6.7527249808967155e-02  -8.3627656926502508e-02  -9.0352609304385906e-02  -8.4523327017249184e-02  -6.6413350667415702e-02  -4.1169471545865977e-02  -1.6445548182276178e-02  3.8228453055315840e-03  1.6981940619975166e-02  2.0756314749329263e-02  1.8084224833477415e-02  1.3318581954357886e-02  8.0318782356796816e-03  3.7058024835448365e-04  -1.4368424854462928e-03  -1.6893794119641727e-02  -1.4534667074303002e-02  -2.4819899108963271e-03  9.0566054244391909e-03  2.1229840181357706e-02  4.1754052382380773e-02  7.1012176923096804e-02  1.0062019175150830e-01  1.2131041456829487e-01  1.2836380052773610e-01  1.2225475719498172e-01  1.0629130637795899e-01  8.4120402030467806e-02  5.8347890645975384e-02  3.0287442365433660e-02  4.0910428548733682e-04  -3.0986283154522461e-02  -6.3448375945283880e-02  -9.5845770743857042e-02  -1.2531881248452931e-01  -1.4665766725432175e-01  -1.5298810518905129e-01  -1.3889051718635134e-01  -1.0529294798244426e-01  -6.2185905548488157e-02  -2.3913899225173285e-02  3.1049684205261196e-03  1.9359941198023457e-02  2.4594422056298103e-02  2.2034590191888848e-02  1.5415899943910736e-02  1.1787011979362484e-03  -3.3547011656893809e-03  -2.4442926497233106e-02  -1.3578274083209425e-02  8.4534218961197366e-03  3.0973934554154047e-02  6.2029596052402984e-02  1.0371535225254347e-01  1.4467972154308145e-01  1.7204405094984299e-01  1.8047327089549456e-01  1.7211490658850012e-01  1.5231172267459639e-01  1.2600622504160250e-01  9.6410452367953203e-02  6.5230988241406163e-02  3.3251704213201151e-02  6.8136584563505001e-04  -3.2783785605992689e-02  -6.7797437176631045e-02  -1.0472400604802681e-01  -1.4281338178355990e-01  -1.7889925134856591e-01  -2.0587889763993117e-01  -2.1319265648727870e-01  -1.9163248444790695e-01  -1.4164949514712802e-01  -7.8587413139738216e-02  -2.5909168004766031e-02  5.8397381529726438e-03  2.1847508923715307e-02  2.6140586008640262e-02  2.0504239726218780e-02  1.7154841509303355e-03  -6.2930041549559409e-03  -2.7505852957755181e-02  -2.7878944775472248e-03  3.2503631306682192e-02  7.4118283650602010e-02  1.2717951718550749e-01  1.7978736996442712e-01  2.1520814738150984e-01  2.2629640238120227e-01  2.1638740873850179e-01  1.9294622930011091e-01  1.6256867695349225e-01  1.2954120525452226e-01  9.6231946578216085e-02  6.3637944073521927e-02  3.1773105684760099e-02  7.7643777714870641e-05  -3.2117574346441219e-02  -6.5397240886864133e-02  -1.0049407997527379e-01  -1.3834666837226675e-01  -1.7937327389611091e-01  -2.2122813513931716e-01  -2.5535909101250576e-01  -2.6629981239685357e-01  -2.3878678480795057e-01  -1.7161694453828108e-01  -8.7004737137593907e-02  -2.0727020540712682e-02  1.2784247106214151e-02  2.5299739213839576e-02  2.2928125955482381e-02  1.8439761431049563e-03  -9.0492651275069346e-03  -2.1402215790609701e-02  2.0272184937542924e-02  7.3613816368199358e-02  1.3680061811264005e-01  2.0173004094362776e-01  2.4820190782612878e-01  2.6504121913744361e-01  2.5546542453168158e-01  2.2930566171757602e-01  1.9558594949752586e-01  1.6016913021073365e-01  1.2592862633832297e-01  9.3432979981656533e-02  6.2011699578571666e-02  3.0840333850889315e-02  -5.4791570760568829e-04  -3.2348092428411572e-02  -6.4601288023523787e-02  -9.7360067734164474e-02  -1.3111037349254231e-01  -1.6736635680488648e-01  -2.0858176131865877e-01  -2.5480621526371633e-01  -2.9661061274999806e-01  -3.1182951588081659e-01  -2.7665236921291825e-01  -1.8866815554289515e-01  -8.1445074892731437e-02  -7.0128448829191248e-03  2.1604272685133454e-02  2.3707320097148536e-02  2.3126129883789099e-03  -9.6056050409275423e-03  -3.0233355769584656e-03  5.6886052106984143e-02  1.3011057288390979e-01  2.0711047820944498e-01  2.6837968767877618e-01  2.9621949168602368e-01  2.9081585686538086e-01  2.6398661161676906e-01  2.2815262852868196e-01  1.9147075384457590e-01  1.5733665347478148e-01  1.2555596664257165e-01  9.4626819615460073e-02  6.3522519809259284e-02  3.1942019589157829e-02  -1.3182030143465861e-04  -3.2655430430758928e-02  -6.5539308363835508e-02  -9.8552866395087355e-02  -1.3125056387286482e-01  -1.6342682697873717e-01  -1.9669157292546263e-01  -2.3599175753726573e-01  -2.8526265980341631e-01  -3.3413019270219790e-01  -3.5064432738778378e-01  -3.0051552753115995e-01  -1.8450381355209128e-01  -5.7276810519474856e-02  1.2150165030102146e-02  2.4442642036320961e-02  3.3813936057860341e-03  -6.4848149385323016e-03  2.8356818690673146e-02  1.0539651625706820e-01  1.9388568541574694e-01  2.7202587955473589e-01  3.1753583729036333e-01  3.2264215664154788e-01  2.9861017713804194e-01  2.6194521054795117e-01  2.2436774652708727e-01  1.9046532933731244e-01  1.5939711651678140e-01  1.2881008467233704e-01  9.7595209895451993e-02  6.5770813678834986e-02  3.3533462018850456e-02  9.6726270409569211e-04  -3.1922102485395724e-02  -6.5208191591002052e-02  -9.8930025459329607e-02  -1.3286121143064072e-01  -1.6615159043271574e-01  -1.9748721779764969e-01  -2.2783200659605152e-01  -2.6489788972504141e-01  -3.1751139392276717e-01  -3.7206503860364082e-01  -3.8151736368998140e-01  -3.0221002474242564e-01  -1.4998056584972258e-01  -1.7449020068993310e-02  2.6290045390196116e-02  3.3413952242879593e-03  6.3505370372370703e-04  7.0738571560806901e-02  1.6055734035281746e-01  2.5570648283858660e-01  3.2397754685652880e-01  3.4838153226879598e-01  3.3324355344411183e-01  2.9769266309678966e-01  2.5893422203285871e-01  2.2454388169611852e-01  1.9379019360680400e-01  1.6335976956011655e-01  1.3186048898235805e-01  9.9671850354063535e-02  6.7261617255020112e-02  3.4762981773823552e-02  2.1390794291129178e-03  -3.0715628321724180e-02  -6.3872621909795022e-02  -9.7412696765419041e-02  -1.3151718772950119e-01  -1.6625365585623997e-01  -2.0060029900662840e-01  -2.3182690087122590e-01  -2.5988839475897818e-01  -2.9643973152570707e-01  -3.5508335866069807e-01  -4.1157336484201845e-01  -3.9686812419399714e-01  -2.6778842389225133e-01  -8.1615580053597730e-02  2.1735501571262722e-02  5.5623297647597793e-03  1.0727718420052053e-02  1.1970260593871340e-01  2.1604324519554316e-01  3.0938660501240600e-01  3.6155962064051606e-01  3.6522860197537599e-01  3.3561827612143902e-01  2.9569775510262836e-01  2.5945683677262937e-01  2.2828984967117419e-01  1.9802420399049037e-01  1.6634596515508659e-01  1.3381159728346664e-01  1.0123953314276657e-01  6.8755061677317028e-02  3.6225410492115848e-02  3.5244835182917920e-03  -2.9408098139350834e-02  -6.2579586827524819e-02  -9.5965731829518439e-02  -1.2957722185962098e-01  -1.6373793396764993e-01  -1.9907745267363738e-01  -2.3457613544052008e-01  -2.6562706379789031e-01  -2.9188123702723251e-01  -3.3217840113448882e-01  -4.0080313738883933e-01  -4.4693044014202232e-01  -3.7819715923987623e-01  -1.8057679496733448e-01  -5.7283130626209185e-04  1.4831429738784228e-02  2.1653349749457113e-02  1.6987887252298683e-01  2.6685853420036371e-01  3.5260161485854824e-01  3.8711474687826641e-01  3.7369187408206550e-01  3.3576854703524744e-01  2.9616140931283941e-01  2.6305074704646969e-01  2.3280538541370699e-01  2.0128138802208367e-01  1.6848171377123916e-01  1.3570422926347905e-01  1.0321109842524485e-01  7.0725487111671176e-02  3.8081579239300806e-02  5.2366884588003317e-03  -2.7818129442451801e-02  -6.1106015150469664e-02  -9.4643423397702445e-02  -1.2835658600989230e-01  -1.6209003715888512e-01  -1.9625708525467186e-01  -2.3226147899109187e-01  -2.6876402425639234e-01  -2.9843935749279682e-01  -3.2416689419108130e-01  -3.7655610711496840e-01  -4.5404570950525064e-01  -4.5776771963381885e-01  -2.9408761671329620e-01  -4.8734665118838928e-02  2.7228517885352445e-02  3.1022165337473415e-02  2.1637288953701397e-01  3.1017776366387817e-01  3.8566802996240274e-01  4.0416883882860927e-01  3.7833541661561532e-01  3.3678033774663962e-01  2.9914088438141900e-01  2.6769289739061564e-01  2.3664929962699421e-01  2.0382289844184937e-01  1.7066674191989475e-01  1.3800883697128283e-01  1.0549445011328150e-01  7.2842573264452384e-02  4.0052571659406913e-02  7.1322336762086975e-03  -2.5959380139305429e-02  -5.9269478745643721e-02  -9.2847176914437918e-02  -1.2675729231164037e-01  -1.6091830925336834e-01  -1.9492307734881215e-01  -2.2935997841701308e-01  -2.6658628102897303e-01  -3.0339887569508328e-01  -3.2950839547029337e-01  -3.6096366330135893e-01  -4.3641226521683962e-01  -4.9890430023269255e-01  -3.9962651737796195e-01  -1.2188992009636795e-01  3.7614330218902217e-02  3.7010239797615599e-02  2.5552124635990886e-01  3.4493263697791138e-01  4.1008237082546040e-01  4.1581561999969624e-01  3.8187485901268753e-01  3.3930277517583124e-01  3.0338040142800665e-01  2.7210211254065902e-01  2.3981674958763036e-01  2.0626387801192289e-01  1.7312660240775701e-01  1.4046409408490609e-01  1.0775567450802445e-01  7.4947959695344971e-02  4.2105749338694057e-02  9.1792399171161873e-03  -2.3901526280869927e-02  -5.7193220076855289e-02  -9.0742884040163743e-02  -1.2460414577863878e-01  -1.5893147492148349e-01  -1.9365421182894998e-01  -2.2803243345349819e-01  -2.6338313164251836e-01  -3.0267323325299794e-01  -3.3716509457260102e-01  -3.5967587550233776e-01  -4.1452261746442942e-01  -5.0765726896393015e-01  -4.8359544139895599e-01  -2.1080552600144956e-01  4.2721990873011935e-02  3.8771994288740015e-02  2.8486921139426785e-01  3.7119142992186910e-01  4.2740393972692076e-01  4.2419107259546490e-01  3.8538449526721019e-01  3.4283221118767221e-01  3.0778066446371016e-01  2.7592553101303757e-01  2.4262950658079196e-01  2.0876891444956835e-01  1.7563656706699465e-01  1.4282005229822764e-01  1.0994314553015247e-01  7.7097356311004589e-02  4.4282260114790868e-02  1.1396473061659506e-02  -2.1630444654522577e-02  -5.4862084491357169e-02  -8.8374638696631549e-02  -1.2222111440398988e-01  -1.5643998691031330e-01  -1.9132582284566421e-01  -2.2669432764615319e-01  -2.6155275972551989e-01  -2.9922219340809914e-01  -3.4017895104215684e-01  -3.6680459515134023e-01  -4.0048470461897179e-01  -4.9691838714204667e-01  -5.4121793684591757e-01  -3.0374696239563681e-01  4.0272163752887037e-02  3.6246632740111862e-02  3.0310378851361763e-01  3.8927710110205754e-01  4.3896447171594544e-01  4.3039360432489049e-01  3.8904649268804725e-01  3.4663554674402824e-01  3.1176603831228350e-01  2.7917246378084692e-01  2.4522309895301247e-01  2.1120468771572948e-01  1.7798935844564723e-01  1.4501687838912297e-01  1.1207985433259537e-01  7.9276784065495071e-02  4.6536463459115683e-02  1.3750783731537061e-02  -1.9150762978865293e-02  -5.2251079788365816e-02  -8.5636698518183396e-02  -1.1942045767097458e-01  -1.5366559070149291e-01  -1.8839166100807539e-01  -2.2410954159124921e-01  -2.6006806093643525e-01  -2.9610671359166274e-01  -3.3823543095881498e-01  -3.7445730743830402e-01  -3.9661404905809045e-01  -4.7881994537243422e-01  -5.7444563888557054e-01  -3.9127492104037376e-01  3.0174253837608311e-02  3.0578546160703178e-02  3.0897450863633413e-01  4.0002808413121799e-01  4.4534907191868300e-01  4.3502650339759991e-01  3.9258806073131419e-01  3.5023363765686905e-01  3.1507446652739191e-01  2.8188671114297015e-01  2.4754757787902668e-01  2.1340953601078333e-01  1.8008197246548155e-01  1.4703138082765485e-01  1.1412349614600326e-01  8.1419337920957541e-02  4.8818258258700453e-02  1.6215247131090519e-02  -1.6473987591811533e-02  -4.9352210728583618e-02  -8.2530740349114798e-02  -1.1610824831113464e-01  -1.5026754200667450e-01  -1.8503649015400470e-01  -2.2052681866454152e-01  -2.5737316297276952e-01  -2.9369892378164758e-01  -3.3383405366856955e-01  -3.7802311390086407e-01  -3.9959086929451992e-01  -4.6093485353571356e-01  -5.8846095310075408e-01  -4.6792929327854155e-01  1.4088274996758085e-02  2.2427767707765823e-02  3.0209991482918019e-01  4.0406119308137362e-01  4.4681234074038573e-01  4.3818525114835521e-01  3.9582212938895528e-01  3.5333033962882482e-01  3.1762757106875111e-01  2.8403593402599375e-01  2.4950840030865276e-01  2.1526259028130759e-01  1.8184883428215878e-01  1.4880559406245392e-01  1.1600160210566238e-01  8.3463922630415854e-02  5.1089628556418028e-02  1.8767261470393825e-02  -1.3607410380432616e-02  -4.6155346780190204e-02  -7.9006865508908439e-02  -1.1230167780729684e-01  -1.4615970130063050e-01  -1.8087183548262725e-01  -2.1626871153017943e-01  -2.5305841282821584e-01  -2.9073542139667841e-01  -3.2886606863710738e-01  -3.7655271085242531e-01  -4.0474371905189299e-01  -4.4619047818200647e-01  -5.8882707910022036e-01  -5.3173196272128431e-01  -5.7179797685816408e-03  1.2107766304769502e-02  2.8327245633765918e-01  4.0081251018667419e-01  4.4391072937003240e-01  4.3931682027553492e-01  3.9881602382337478e-01  3.5577911581956850e-01  3.1943911091967186e-01  2.8553107432940417e-01  2.5101965544475685e-01  2.1667796620480786e-01  1.8321411948108313e-01  1.5025960203657357e-01  1.1763788214483611e-01  8.5348786203125693e-02  5.3301684726944971e-02  2.1369924508038513e-02  -1.0568003688160346e-02  -4.2656230343397175e-02  -7.5041214484006774e-02  -1.0789149277999210e-01  -1.4136578764310298e-01  -1.7569740025564154e-01  -2.1108200925139675e-01  -2.4741083204093273e-01  -2.8601861440738507e-01  -3.2362980074061715e-01  -3.7102185127258830e-01  -4.0833758197349862e-01  -4.3451288171176600e-01  -5.8005696636193727e-01  -5.8283098590814075e-01  -2.7279384172485786e-02  1.4319930711608245e-03  2.5327082856194394e-01  3.8914474360914914e-01  4.3694802520914827e-01  4.3776533304840698e-01  4.0143259698563044e-01  3.5776624804101387e-01  3.2050655561659158e-01  2.8631857769546781e-01  2.5195237453751917e-01  2.1760241110242265e-01  1.8409476702583680e-01  1.5129474324865969e-01  1.1894647778950433e-01  8.7004190158601696e-02  5.5392444162379956e-02  2.3978306292432743e-02  -7.3854036002196288e-03  -3.8857463530050061e-02  -7.0621191689681603e-02  -1.0283369653205447e-01  -1.3574796187987001e-01  -1.6953491947996341e-01  -2.0457429602532765e-01  -2.4055718751179209e-01  -2.7909355106077349e-01  -3.1736971396480884e-01  -3.6269450305370660e-01  -4.0819946650108668e-01  -4.2440516374634152e-01  -5.6529302619676802e-01  -6.2232070884860924e-01  -4.9292731973841951e-02  -7.6174278770459111e-03  2.1375210615241927e-01  3.6751318062758115e-01  4.2563183104233870e-01  4.3301510314330122e-01  4.0309863287202702e-01  3.5969216692302569e-01  3.2092574132433527e-01  2.8634578630498536e-01  2.5216431468929013e-01  2.1794399987676369e-01  1.8442918113922960e-01  1.5179846186844406e-01  1.1981522700947089e-01  8.8340243479127931e-02  5.7289683576465786e-02  2.6531852042683789e-02  -4.0973323845324185e-03  -3.4783944876582658e-02  -6.5723028296779229e-02  -9.7109787106056597e-02  -1.2921418834845841e-01  -1.6230736664102208e-01  -1.9659324978528239e-01  -2.3222663149655687e-01  -2.7002849372004523e-01  -3.0908980923597668e-01  -3.5232210142027964e-01  -4.0345610217612266e-01  -4.1393375642217745e-01  -5.4654658024039249e-01  -6.5156043690716536e-01  -7.0971978133362743e-02  -1.3658152322347768e-02  1.6776576537900845e-01  3.3445125055377228e-01  4.0873104597404669e-01  4.2467135563265179e-01  4.0282718176150650e-01  3.6173695336278006e-01  3.2109897119628067e-01  2.8555472625514050e-01  2.5150819226986515e-01  2.1753567806219767e-01  1.8412718466731026e-01  1.5167693017752859e-01  1.2010998686087461e-01  8.9230360383336121e-02  5.8894004225234393e-02  2.8957186419892020e-02  -7.5856944602585444e-04  -3.0457376555342551e-02  -6.0350164501862612e-02  -9.0681357081398781e-02  -1.2176105281974529e-01  -1.5385135425068541e-01  -1.8712265059553432e-01  -2.2202288338645410e-01  -2.5896255495713344e-01  -2.9803522172929492e-01  -3.4004380405357698e-01  -3.9393498366153074e-01  -4.0134174192127098e-01  -5.2486491920093814e-01  -6.7204216347061108e-01  -9.1633798766872027e-02  -1.6024782461922554e-02  1.1967901260719552e-01  2.8947056230124169e-01  3.8389120608858385e-01  4.1209763054737331e-01  3.9946806518406897e-01  3.6333598245168436e-01  3.2160260461361362e-01  2.8412699017436283e-01  2.4978496975219980e-01  2.1613844041715494e-01  1.8300716684194107e-01  1.5083024012681026e-01  1.1972340470821027e-01  8.9540825597193729e-02  6.0082670218246211e-02  3.1158884563044414e-02  2.5670775322700575e-03  -2.5915463425411601e-02  -5.4532291417515595e-02  -8.3579884567484178e-02  -1.1335000996853802e-01  -1.4406572950932262e-01  -1.7604025445288443e-01  -2.0980866333915379e-01  -2.4566978108812829e-01  -2.8399743852725939e-01  -3.2544933707638346e-01  -3.7966223755280926e-01  -3.8537962519994823e-01  -5.0031375483232310e-01  -6.8548390245462487e-01  -1.1048993816066746e-01  -1.5041975147725354e-02  7.4741963895892785e-02  2.3416500152779759e-01  3.4827087575752919e-01  3.9365854357040769e-01  3.9197677237197887e-01  3.6304164919165455e-01  3.2248037462515156e-01  2.8268376903481668e-01  2.4697160002925339e-01  2.1339627218698773e-01  1.8072755491454223e-01  1.4903639941269881e-01  1.1852522876957111e-01  8.9152434811094722e-02  6.0727206917023963e-02  3.3013744251281348e-02  5.7690580506860548e-03  -2.1262292285304390e-02  -4.8359411483901937e-02  -7.5822516113586994e-02  -1.0389920124437815e-01  -1.3287410777077263e-01  -1.6329123587550232e-01  -1.9550290997010142e-01  -2.2979622802256464e-01  -2.6701797982812903e-01  -3.0792646756922892e-01  -3.6060112949095541e-01  -3.6487555284414164e-01  -4.7252945959200671e-01  -6.9363648290483393e-01  -1.2684497349999788e-01  -1.1637550130277544e-02  3.7820371576087371e-02  1.7296183647723537e-01  2.9992830410727556e-01  3.6638480566461440e-01  3.7896684810460618e-01  3.5899392118414253e-01  3.2242486137198417e-01  2.8160814100550230e-01  2.4360913151322830e-01  2.0915864348981095e-01  1.7681033739321370e-01  1.4585125349567010e-01  1.1621742383288013e-01  8.7884780984883629e-02  6.0695567821620132e-02  3.4411714230759484e-02  8.7543484205593654e-03  -1.6568258996093956e-02  -4.1829103284218253e-02  -6.7336153158916806e-02  -9.3367097950365005e-02  -1.2