<?xml version="1.0"?>
<VTKFile type="UnstructuredGrid"  version="0.1"  >
<UnstructuredGrid>
<Piece  NumberOfPoints="16641" NumberOfCells="16384">
<Points>
<DataArray  type="Float64"  NumberOfComponents="3"  format="ascii">0 0 0  0.0078125 0 0  0.015625 0 0  0.0234375 0 0  0.03125 0 0  0.0390625 0 0  0.046875 0 0  0.0546875 0 0  0.0625 0 0  0.0703125 0 0  0.078125 0 0  0.0859375 0 0  0.09375 0 0  0.1015625 0 0  0.109375 0 0  0.1171875 0 0  0.125 0 0  0.1328125 0 0  0.140625 0 0  0.1484375 0 0  0.15625 0 0  0.1640625 0 0  0.171875 0 0  0.1796875 0 0  0.1875 0 0  0.1953125 0 0  0.203125 0 0  0.2109375 0 0  0.21875 0 0  0.2265625 0 0  0.234375 0 0  0.2421875 0 0  0.25 0 0  0.2578125 0 0  0.265625 0 0  0.2734375 0 0  0.28125 0 0  0.2890625 0 0  0.296875 0 0  0.3046875 0 0  0.3125 0 0  0.3203125 0 0  0.328125 0 0  0.3359375 0 0  0.34375 0 0  0.3515625 0 0  0.359375 0 0  0.3671875 0 0  0.375 0 0  0.3828125 0 0  0.390625 0 0  0.3984375 0 0  0.40625 0 0  0.4140625 0 0  0.421875 0 0  0.4296875 0 0  0.4375 0 0  0.4453125 0 0  0.453125 0 0  0.4609375 0 0  0.46875 0 0  0.4765625 0 0  0.484375 0 0  0.4921875 0 0  0.5 0 0  0.5078125 0 0  0.515625 0 0  0.5234375 0 0  0.53125 0 0  0.5390625 0 0  0.546875 0 0  0.5546875 0 0  0.5625 0 0  0.5703125 0 0  0.578125 0 0  0.5859375 0 0  0.59375 0 0  0.6015625 0 0  0.609375 0 0  0.6171875 0 0  0.625 0 0  0.6328125 0 0  0.640625 0 0  0.6484375 0 0  0.65625 0 0  0.6640625 0 0  0.671875 0 0  0.6796875 0 0  0.6875 0 0  0.6953125 0 0  0.703125 0 0  0.7109375 0 0  0.71875 0 0  0.7265625 0 0  0.734375 0 0  0.7421875 0 0  0.75 0 0  0.7578125 0 0  0.765625 0 0  0.7734375 0 0  0.78125 0 0  0.7890625 0 0  0.796875 0 0  0.8046875 0 0  0.8125 0 0  0.8203125 0 0  0.828125 0 0  0.8359375 0 0  0.84375 0 0  0.8515625 0 0  0.859375 0 0  0.8671875 0 0  0.875 0 0  0.8828125 0 0  0.890625 0 0  0.8984375 0 0  0.90625 0 0  0.9140625 0 0  0.921875 0 0  0.9296875 0 0  0.9375 0 0  0.9453125 0 0  0.953125 0 0  0.9609375 0 0  0.96875 0 0  0.9765625 0 0  0.984375 0 0  0.9921875 0 0  1 0 0  0 0.0078125 0  0.0078125 0.0078125 0  0.015625 0.0078125 0  0.0234375 0.0078125 0  0.03125 0.0078125 0  0.0390625 0.0078125 0  0.046875 0.0078125 0  0.0546875 0.0078125 0  0.0625 0.0078125 0  0.0703125 0.0078125 0  0.078125 0.0078125 0  0.0859375 0.0078125 0  0.09375 0.0078125 0  0.1015625 0.0078125 0  0.109375 0.0078125 0  0.1171875 0.0078125 0  0.125 0.0078125 0  0.1328125 0.0078125 0  0.140625 0.0078125 0  0.1484375 0.0078125 0  0.15625 0.0078125 0  0.1640625 0.0078125 0  0.171875 0.0078125 0  0.1796875 0.0078125 0  0.1875 0.0078125 0  0.1953125 0.0078125 0  0.203125 0.0078125 0  0.2109375 0.0078125 0  0.21875 0.0078125 0  0.2265625 0.0078125 0  0.234375 0.0078125 0  0.2421875 0.0078125 0  0.25 0.0078125 0  0.2578125 0.0078125 0  0.265625 0.0078125 0  0.2734375 0.0078125 0  0.28125 0.0078125 0  0.2890625 0.0078125 0  0.296875 0.0078125 0  0.3046875 0.0078125 0  0.3125 0.0078125 0  0.3203125 0.0078125 0  0.328125 0.0078125 0  0.3359375 0.0078125 0  0.34375 0.0078125 0  0.3515625 0.0078125 0  0.359375 0.0078125 0  0.3671875 0.0078125 0  0.375 0.0078125 0  0.3828125 0.0078125 0  0.390625 0.0078125 0  0.3984375 0.0078125 0  0.40625 0.0078125 0  0.4140625 0.0078125 0  0.421875 0.0078125 0  0.4296875 0.0078125 0  0.4375 0.0078125 0  0.4453125 0.0078125 0  0.453125 0.0078125 0  0.4609375 0.0078125 0  0.46875 0.0078125 0  0.4765625 0.0078125 0  0.484375 0.0078125 0  0.4921875 0.0078125 0  0.5 0.0078125 0  0.5078125 0.0078125 0  0.515625 0.0078125 0  0.5234375 0.0078125 0  0.53125 0.0078125 0  0.5390625 0.0078125 0  0.546875 0.0078125 0  0.5546875 0.0078125 0  0.5625 0.0078125 0  0.5703125 0.0078125 0  0.578125 0.0078125 0  0.5859375 0.0078125 0  0.59375 0.0078125 0  0.6015625 0.0078125 0  0.609375 0.0078125 0  0.6171875 0.0078125 0  0.625 0.0078125 0  0.6328125 0.0078125 0  0.640625 0.0078125 0  0.6484375 0.0078125 0  0.65625 0.0078125 0  0.6640625 0.0078125 0  0.671875 0.0078125 0  0.6796875 0.0078125 0  0.6875 0.0078125 0  0.6953125 0.0078125 0  0.703125 0.0078125 0  0.7109375 0.0078125 0  0.71875 0.0078125 0  0.7265625 0.0078125 0  0.734375 0.0078125 0  0.7421875 0.0078125 0  0.75 0.0078125 0  0.7578125 0.0078125 0  0.765625 0.0078125 0  0.7734375 0.0078125 0  0.78125 0.0078125 0  0.7890625 0.0078125 0  0.796875 0.0078125 0  0.8046875 0.0078125 0  0.8125 0.0078125 0  0.8203125 0.0078125 0  0.828125 0.0078125 0  0.8359375 0.0078125 0  0.84375 0.0078125 0  0.8515625 0.0078125 0  0.859375 0.0078125 0  0.8671875 0.0078125 0  0.875 0.0078125 0  0.8828125 0.0078125 0  0.890625 0.0078125 0  0.8984375 0.0078125 0  0.90625 0.0078125 0  0.9140625 0.0078125 0  0.921875 0.0078125 0  0.9296875 0.0078125 0  0.9375 0.0078125 0  0.9453125 0.0078125 0  0.953125 0.0078125 0  0.9609375 0.0078125 0  0.96875 0.0078125 0  0.9765625 0.0078125 0  0.984375 0.0078125 0  0.9921875 0.0078125 0  1 0.0078125 0  0 0.015625 0  0.0078125 0.015625 0  0.015625 0.015625 0  0.0234375 0.015625 0  0.03125 0.015625 0  0.0390625 0.015625 0  0.046875 0.015625 0  0.0546875 0.015625 0  0.0625 0.015625 0  0.0703125 0.015625 0  0.078125 0.015625 0  0.0859375 0.015625 0  0.09375 0.015625 0  0.1015625 0.015625 0  0.109375 0.015625 0  0.1171875 0.015625 0  0.125 0.015625 0  0.1328125 0.015625 0  0.140625 0.015625 0  0.1484375 0.015625 0  0.15625 0.015625 0  0.1640625 0.015625 0  0.171875 0.015625 0  0.1796875 0.015625 0  0.1875 0.015625 0  0.1953125 0.015625 0  0.203125 0.015625 0  0.2109375 0.015625 0  0.21875 0.015625 0  0.2265625 0.015625 0  0.234375 0.015625 0  0.2421875 0.015625 0  0.25 0.015625 0  0.2578125 0.015625 0  0.265625 0.015625 0  0.2734375 0.015625 0  0.28125 0.015625 0  0.2890625 0.015625 0  0.296875 0.015625 0  0.3046875 0.015625 0  0.3125 0.015625 0  0.3203125 0.015625 0  0.328125 0.015625 0  0.3359375 0.015625 0  0.34375 0.015625 0  0.3515625 0.015625 0  0.359375 0.015625 0  0.3671875 0.015625 0  0.375 0.015625 0  0.3828125 0.015625 0  0.390625 0.015625 0  0.3984375 0.015625 0  0.40625 0.015625 0  0.4140625 0.015625 0  0.421875 0.015625 0  0.4296875 0.015625 0  0.4375 0.015625 0  0.4453125 0.015625 0  0.453125 0.015625 0  0.4609375 0.015625 0  0.46875 0.015625 0  0.4765625 0.015625 0  0.484375 0.015625 0  0.4921875 0.015625 0  0.5 0.015625 0  0.5078125 0.015625 0  0.515625 0.015625 0  0.5234375 0.015625 0  0.53125 0.015625 0  0.5390625 0.015625 0  0.546875 0.015625 0  0.5546875 0.015625 0  0.5625 0.015625 0  0.5703125 0.015625 0  0.578125 0.015625 0  0.5859375 0.015625 0  0.59375 0.015625 0  0.6015625 0.015625 0  0.609375 0.015625 0  0.6171875 0.015625 0  0.625 0.015625 0  0.6328125 0.015625 0  0.640625 0.015625 0  0.6484375 0.015625 0  0.65625 0.015625 0  0.6640625 0.015625 0  0.671875 0.015625 0  0.6796875 0.015625 0  0.6875 0.015625 0  0.6953125 0.015625 0  0.703125 0.015625 0  0.7109375 0.015625 0  0.71875 0.015625 0  0.7265625 0.015625 0  0.734375 0.015625 0  0.7421875 0.015625 0  0.75 0.015625 0  0.7578125 0.015625 0  0.765625 0.015625 0  0.7734375 0.015625 0  0.78125 0.015625 0  0.7890625 0.015625 0  0.796875 0.015625 0  0.8046875 0.015625 0  0.8125 0.015625 0  0.8203125 0.015625 0  0.828125 0.015625 0  0.8359375 0.015625 0  0.84375 0.015625 0  0.8515625 0.015625 0  0.859375 0.015625 0  0.8671875 0.015625 0  0.875 0.015625 0  0.8828125 0.015625 0  0.890625 0.015625 0  0.8984375 0.015625 0  0.90625 0.015625 0  0.9140625 0.015625 0  0.921875 0.015625 0  0.9296875 0.015625 0  0.9375 0.015625 0  0.9453125 0.015625 0  0.953125 0.015625 0  0.9609375 0.015625 0  0.96875 0.015625 0  0.9765625 0.015625 0  0.984375 0.015625 0  0.9921875 0.015625 0  1 0.015625 0  0 0.0234375 0  0.0078125 0.0234375 0  0.015625 0.0234375 0  0.0234375 0.0234375 0  0.03125 0.0234375 0  0.0390625 0.0234375 0  0.046875 0.0234375 0  0.0546875 0.0234375 0  0.0625 0.0234375 0  0.0703125 0.0234375 0  0.078125 0.0234375 0  0.0859375 0.0234375 0  0.09375 0.0234375 0  0.1015625 0.0234375 0  0.109375 0.0234375 0  0.1171875 0.0234375 0  0.125 0.0234375 0  0.1328125 0.0234375 0  0.140625 0.0234375 0  0.1484375 0.0234375 0  0.15625 0.0234375 0  0.1640625 0.0234375 0  0.171875 0.0234375 0  0.1796875 0.0234375 0  0.1875 0.0234375 0  0.1953125 0.0234375 0  0.203125 0.0234375 0  0.2109375 0.0234375 0  0.21875 0.0234375 0  0.2265625 0.0234375 0  0.234375 0.0234375 0  0.2421875 0.0234375 0  0.25 0.0234375 0  0.2578125 0.0234375 0  0.265625 0.0234375 0  0.2734375 0.0234375 0  0.28125 0.0234375 0  0.2890625 0.0234375 0  0.296875 0.0234375 0  0.3046875 0.0234375 0  0.3125 0.0234375 0  0.3203125 0.0234375 0  0.328125 0.0234375 0  0.3359375 0.0234375 0  0.34375 0.0234375 0  0.3515625 0.0234375 0  0.359375 0.0234375 0  0.3671875 0.0234375 0  0.375 0.0234375 0  0.3828125 0.0234375 0  0.390625 0.0234375 0  0.3984375 0.0234375 0  0.40625 0.0234375 0  0.4140625 0.0234375 0  0.421875 0.0234375 0  0.4296875 0.0234375 0  0.4375 0.0234375 0  0.4453125 0.0234375 0  0.453125 0.0234375 0  0.4609375 0.0234375 0  0.46875 0.0234375 0  0.4765625 0.0234375 0  0.484375 0.0234375 0  0.4921875 0.0234375 0  0.5 0.0234375 0  0.5078125 0.0234375 0  0.515625 0.0234375 0  0.5234375 0.0234375 0  0.53125 0.0234375 0  0.5390625 0.0234375 0  0.546875 0.0234375 0  0.5546875 0.0234375 0  0.5625 0.0234375 0  0.5703125 0.0234375 0  0.578125 0.0234375 0  0.5859375 0.0234375 0  0.59375 0.0234375 0  0.6015625 0.0234375 0  0.609375 0.0234375 0  0.6171875 0.0234375 0  0.625 0.0234375 0  0.6328125 0.0234375 0  0.640625 0.0234375 0  0.6484375 0.0234375 0  0.65625 0.0234375 0  0.6640625 0.0234375 0  0.671875 0.0234375 0  0.6796875 0.0234375 0  0.6875 0.0234375 0  0.6953125 0.0234375 0  0.703125 0.0234375 0  0.7109375 0.0234375 0  0.71875 0.0234375 0  0.7265625 0.0234375 0  0.734375 0.0234375 0  0.7421875 0.0234375 0  0.75 0.0234375 0  0.7578125 0.0234375 0  0.765625 0.0234375 0  0.7734375 0.0234375 0  0.78125 0.0234375 0  0.7890625 0.0234375 0  0.796875 0.0234375 0  0.8046875 0.0234375 0  0.8125 0.0234375 0  0.8203125 0.0234375 0  0.828125 0.0234375 0  0.8359375 0.0234375 0  0.84375 0.0234375 0  0.8515625 0.0234375 0  0.859375 0.0234375 0  0.8671
[...]
<PointData  Scalars="u_sol"> 
<DataArray  type="Float64"  Name="u_sol"  format="ascii">1.5526555861978951e-06  -6.2940871165071846e-06  -1.7903637327761090e-05  -2.3940384623855424e-05  -2.4152874112035872e-05  -1.8766637570862854e-05  -8.5398323504777611e-06  5.4400227482370578e-06  2.1753300705585466e-05  3.8815357571970622e-05  5.5103063429075710e-05  6.9380774774018667e-05  8.0859934639338532e-05  8.9261062631376876e-05  9.4780522843549973e-05  9.7990398177550084e-05  9.9709710705167220e-05  1.0088077868707661e-04  1.0247094037679103e-04  1.0540446150298339e-04  1.1051772810852014e-04  1.1852618967164551e-04  1.2999465626649265e-04  1.4531171048979739e-04  1.6467980605524145e-04  1.8813891190446740e-04  2.1563752856661029e-04  2.4714888072810659e-04  2.8280739610999587e-04  3.2302290485099926e-04  3.6852969418610403e-04  4.2034919589741850e-04  4.7968117223428410e-04  5.4777009281952881e-04  6.2579820726529531e-04  7.1482993834687963e-04  8.1579454812766186e-04  9.2946613871775841e-04  1.0563940162349335e-03  1.1967654925075495e-03  1.3502300359034163e-03  1.5157233708778634e-03  1.6912919506817479e-03  1.8738908892229980e-03  2.0591540046162545e-03  2.2411995149140894e-03  2.4125830457611777e-03  2.5644675725754584e-03  2.6869567622744301e-03  2.7694636285933777e-03  2.8010542362485184e-03  2.7708347640231028e-03  2.6684936956181213e-03  2.4850338572879015e-03  2.2136122685624663e-03  1.8503389448070501e-03  1.3948966920073523e-03  8.5090461832912064e-04  2.2601833445278009e-04  -4.6819024480308856e-04  -1.2165092950448160e-03  -2.0004583767250245e-03  -2.7987120690212580e-03  -3.5875569267686865e-03  -4.3413866102750805e-03  -5.0332579894286694e-03  -5.6355438070184675e-03  -6.1207213742319059e-03  -6.4623328995716909e-03  -6.6361404599384931e-03  -6.6214749878627851e-03  -6.4027462336431838e-03  -5.9710378061817023e-03  -5.3256634776571322e-03  -4.4755126949909173e-03  -3.4399754218634357e-03  -2.2492207756617958e-03  -9.4362461855124560e-04  4.2779318675594116e-04  1.8099474382650804e-03  3.1451567574487986e-03  4.3772128593742706e-03  5.4556158071823605e-03  6.3394558604810552e-03  7.0004261160859808e-03  7.4245537491234494e-03  7.6124272420411204e-03  7.5779349361310595e-03  7.3457663239150294e-03  6.9481106936995340e-03  6.4210819101814670e-03  5.8013896581912373e-03  5.1236755267926402e-03  4.4187640449627604e-03  3.7128790610131304e-03  3.0276816600239291e-03  2.3808304536378153e-03  1.7866804422136272e-03  1.2567520927164750e-03  7.9973636448993997e-04  4.2103927803528355e-04  1.2213533335513727e-04  -9.9840032660050357e-05  -2.5188946816927601e-04  -3.4424254709457123e-04  -3.8894196769219131e-04  -3.9830495143019395e-04  -3.8362241977603503e-04  -3.5432064143143453e-04  -3.1763077164970996e-04  -2.7866673299975920e-04  -2.4074912474025367e-04  -2.0582260623308560e-04  -1.7485763073010445e-04  -1.4817571756869664e-04  -1.2567989958143524e-04  -1.0700237172831933e-04  -9.1595978403592065e-05  -7.8797157405733831e-05  -6.7879219001022210e-05  -5.8106756325359670e-05  -4.8793538654288706e-05  -3.9367337722460299e-05  -2.9451869385231228e-05  -1.8960800625996704e-05  -8.3855485644224314e-06  1.0144396728876769e-06  4.9255822681994470e-06  -1.8443051980922073e-07  3.8839973235254782e-06  -2.3356974824077151e-05  -2.5729028341834813e-05  5.8791080846622569e-05  2.5105023732950859e-04  5.5344393874053543e-04  9.5420567738586329e-04  1.4317785143193947e-03  1.9580923548984555e-03  2.5023033081573772e-03  3.0345791885810483e-03  3.5294863250425693e-03  3.9684870248231328e-03  4.3412677091460069e-03  4.6458664495503173e-03  4.8877861610224903e-03  5.0784081591537140e-03  5.2330470257229648e-03  5.3689320680268774e-03  5.5033030656319384e-03  5.6517137036150118e-03  5.8265809619830701e-03  6.0360183520956562e-03  6.2830332018554468e-03  6.5652142551612877e-03  6.8750324332163019e-03  7.2007830135066226e-03  7.5280125088089435e-03  7.8410597663943950e-03  8.1242071270337685e-03  8.3619888110660623e-03  8.5384716505565710e-03  8.6357170956422123e-03  8.6319613364924611e-03  8.5001266959227415e-03  8.2070486887288255e-03  7.7134190109140266e-03  6.9741863070750029e-03  5.9391944142057704e-03  4.5540600789169151e-03  2.7614413041572410e-03  5.0283305525065491e-04  -2.2789920934316722e-03  -5.6367820981568012e-03  -9.6149650606386725e-03  -1.4245660944169056e-02  -1.9545030497866253e-02  -2.5510133428433945e-02  -3.2116398744448868e-02  -3.9316035392587934e-02  -4.7037826084238260e-02  -5.5188558670875146e-02  -6.3655996607220225e-02  -7.2312981596162271e-02  -8.1022106220245235e-02  -8.9640397942359187e-02  -9.8023568129680286e-02  -1.0602954305127775e-01  -1.1352115976376385e-01  -1.2036804920405818e-01  -1.2644782910371158e-01  -1.3164678894380724e-01  -1.3586027440140827e-01  -1.3899297841963842e-01  -1.4095932799371230e-01  -1.4168412702759564e-01  -1.4110357946734878e-01  -1.3916677577299383e-01  -1.3583767910097350e-01  -1.3109759398194309e-01  -1.2494804024826574e-01  -1.1741388559279817e-01  -1.0854651645771295e-01  -9.8426751654471026e-02  -8.7167136269927906e-02  -7.4913206687442280e-02  -6.1843306901740829e-02  -4.8166576341385152e-02  -3.4118833166159795e-02  -1.9956247171607391e-02  -5.9469258625015273e-03  7.6391985428671842e-03  2.0541530272634653e-02  3.2520151945401497e-02  4.3366354118312238e-02  5.2911357597899097e-02  6.1032370820327454e-02  6.7655390605002474e-02  7.2754519593949796e-02  7.6347989974559952e-02  7.8491494059102940e-02  7.9269772242023584e-02  7.8787646577873918e-02  7.7161773160620312e-02  7.4514289809525361e-02  7.0969239046823923e-02  6.6652144300403490e-02  6.1692426901659089e-02  5.6227542743835540e-02  5.0406954227332185e-02  4.4393616770415485e-02  3.8360896771432833e-02  3.2483984068483782e-02  2.6926768969738200e-02  2.1827128710632044e-02  1.7284596854820033e-02  1.3353790439836012e-02  1.0044990653641409e-02  7.3309611778818911e-03  5.1575127248841262e-03  3.4549443545086799e-03  2.1481168064297535e-03  1.1639921694740955e-03  4.3646845358578105e-04  -9.1053516874593158e-05  -4.6474069395198496e-04  -7.2048904156726530e-04  -8.8480582270510544e-04  -9.7618674385316026e-04  -1.0068354648488109e-03  -9.8459614020784546e-04  -9.1498861973109060e-04  -8.0325669841697163e-04  -6.5640907101599836e-04  -4.8522464346762540e-04  -3.0639522018143482e-04  -1.4411076217413427e-04  -3.1075498546566656e-05  6.4202738472393163e-06  -7.0645422587829249e-07  1.8188155041601788e-06  7.9536830851391531e-05  2.9696410792355837e-04  6.8096197351331879e-04  1.2337546683527977e-03  1.9363079707384388e-03  2.7544046962580840e-03  3.6441775444931070e-03  4.5580216157033865e-03  5.4502298088014841e-03  6.2818266550577944e-03  7.0240624504566565e-03  7.6602862406391801e-03  8.1861848328022603e-03  8.6086127553112596e-03  8.9433832870902241e-03  9.2124348788754536e-03  9.4407455243904360e-03  9.6532768288970922e-03  9.8721343871881993e-03  1.0114071352319643e-02  1.0388456822822797e-02  1.0695866234144617e-02  1.1027479440188618e-02  1.1365428143773067e-02  1.1684070156259403e-02  1.1951895617201403e-02  1.2133484395552419e-02  1.2190789447049905e-02  1.2083157588938827e-02  1.1765938961933909e-02  1.1188125245087865e-02  1.0289902576785087e-02  9.0010391369543061e-03  7.2406454447632579e-03  4.9183583947450685e-03  1.9367374831670613e-03  -1.8052951740729530e-03  -6.4078881912397407e-03  -1.1964279761833419e-02  -1.8553373747646557e-02  -2.6231504325394062e-02  -3.5024360331710830e-02  -4.4919884492967493e-02  -5.5862917102987117e-02  -6.7752612556820899e-02  -8.0443689260819476e-02  -9.3751945979441892e-02  -1.0746345360550061e-01  -1.2134602982666816e-01  -1.3516133660113477e-01  -1.4867611525526439e-01  -1.6167147437512774e-01  -1.7394962085645896e-01  -1.8533787999435111e-01  -1.9569022363591035e-01  -2.0488677314397574e-01  -2.1283185629563728e-01  -2.1945119697818008e-01  -2.2468873984659918e-01  -2.2850350121670282e-01  -2.3086672172850417e-01  -2.3175949624863046e-01  -2.3117097995337529e-01  -2.2909721645676315e-01  -2.2554060124292780e-01  -2.2050997363460717e-01  -2.1402131819177941e-01  -2.0609904259079609e-01  -1.9677777965871382e-01  -1.8610463083690382e-01  -1.7414172380314899e-01  -1.6096889898147237e-01  -1.4668627337746457e-01  -1.3141636448504079e-01  -1.1530540938309840e-01  -9.8523502567781224e-02  -8.1263222005850386e-02  -6.3736528409636367e-02  -4.6169907215884577e-02  -2.8797955833965407e-02  -1.1855858236925676e-02  4.4286175880285010e-03  1.9842867404141630e-02  3.4196238880096201e-02  4.7325298082547124e-02  5.9097229109838299e-02  6.9411250603442429e-02  7.8198125044911068e-02  8.5417972679686080e-02  9.1056702826383076e-02  9.5121487824067652e-02  9.7635870522609400e-02  9.8635322060378394e-02  9.8164299527952303e-02  9.6275977566412804e-02  9.3035677390487306e-02  8.8528409056125745e-02  8.2869758965662552e-02  7.6217678235752803e-02  6.8781013901808449e-02  6.0819764525209492e-02  5.2633090491684568e-02  4.4534564402565500e-02  3.6819111829855936e-02  2.9730180702257560e-02  2.3436320646586267e-02  1.8022846583933095e-02  1.3498592931350998e-02  9.8130890499062082e-03  6.8777519812714813e-03  4.5857291145451696e-03  2.8273855259505938e-03  1.5006677593767182e-03  5.1694656447944984e-04  -1.9657237554797282e-04  -6.9683119820115001e-04  -1.0264898177879112e-03  -1.2164909881071551e-03  -1.2891804244922289e-03  -1.2616459547042038e-03  -1.1490473385840944e-03  -9.6775306439867825e-04  -7.3825719452550397e-04  -4.8737538311420471e-04  -2.5009796339788590e-04  -6.6424199496586635e-05  1.2802130356013446e-05  -7.3428107847682118e-06  3.6151431767420394e-05  2.1411756392582514e-04  5.7832478218855531e-04  1.1507292305447455e-03  1.9273455812483507e-03  2.8806224228635486e-03  3.9654782351237509e-03  5.1262340975945717e-03  6.3039637253565605e-03  7.4432968016354198e-03  8.4979382525686327e-03  9.4343890766921835e-03  1.0233686756698692e-02  1.0891285942628613e-02  1.1415410332933983e-02  1.1824303536194335e-02  1.2142805887855376e-02  1.2398620796673109e-02  1.2618547589722714e-02  1.2824885546407904e-02  1.3032184434055356e-02  1.3244538888948816e-02  1.3453672708035139e-02  1.3638072877800576e-02  1.3763333351610367e-02  1.3783607702351803e-02  1.3643689932311701e-02  1.3280903208816225e-02  1.2625904062453170e-02  1.1601869749769411e-02  1.0122282595960701e-02  8.0883274530595562e-03  5.3873215064738572e-03  1.8933669410958133e-03  -2.5292791319177542e-03  -8.0202758118826135e-03  -1.4714938129863660e-02  -2.2733602660422642e-02  -3.2168893371771444e-02  -4.3072030497972459e-02  -5.5439844071781853e-02  -6.9204384327928095e-02  -8.4227412567905446e-02  -1.0030198405148033e-01  -1.1716212454855419e-01  -1.3449974429956008e-01  -1.5198629583968276e-01  -1.6929571067314589e-01  -1.8612506358072864e-01  -2.0221022299996924e-01  -2.1733510693000616e-01  -2.3133456914303133e-01  -2.4409199908963017e-01  -2.5553326144138855e-01  -2.6561866698374642e-01  -2.7433440541572041e-01  -2.8168446069629249e-01  -2.8768361139388460e-01  -2.9235177478768176e-01  -2.9570971515160932e-01  -2.9777599898558604e-01  -2.9856502246360234e-01  -2.9808593201179850e-01  -2.9634228725799805e-01  -2.9333235698727544e-01  -2.8904998349937205e-01  -2.8348598978591033e-01  -2.7663013209976384e-01  -2.6847361476830983e-01  -2.5901217829292028e-01  -2.4824974483154391e-01  -2.3620255079607594e-01  -2.2290361468974207e-01  -2.0840728058962804e-01  -1.9279345401590406e-01  -1.7617102504237367e-01  -1.5867988580388193e-01  -1.4049093229620360e-01  -1.2180353684113189e-01  -1.0284021238130872e-01  -8.3838564249077985e-02  -6.5041089350339087e-02  -4.6683846845281825e-02  -2.8985362165325605e-02  -1.2137222909692885e-02  3.7023841981397702e-03  1.8411434315164597e-02  3.1903008908173588e-02  4.4120935799737353e-02  5.5033077040203493e-02  6.4623378705199713e-02  7.2883701956911406e-02  7.9806227376634759e-02  8.5377038308842274e-02  8.9571496362474592e-02  9.2352280036697584e-02  9.3671375622076267e-02  9.3477626482310422e-02  9.1731242902756055e-02  8.8425463917351788e-02  8.3613040596327196e-02  7.7431688789613831e-02  7.0119508458265048e-02  6.2010934793465186e-02  5.3508170977118616e-02  4.5031922394803726e-02  3.6964569203997995e-02  2.9602888442542014e-02  2.3133137322418170e-02  1.7631503737045192e-02  1.3083748047167717e-02  9.4137497792974468e-03  6.5118292416351262e-03  4.2574982720642888e-03  2.5349812779442301e-03  1.2421249481691862e-03  2.9419465495255086e-04  -3.7589313972160210e-04  -8.1961311204820032e-04  -1.0761599980546970e-03  -1.1763405770030696e-03  -1.1465272743241706e-03  -1.0123355670249023e-03  -8.0186364051769812e-04  -5.4810692848783385e-04  -2.9142018133907383e-04  -7.9525296129173912e-05  1.5506593244896747e-05  -1.3848130894203046e-05  6.8953445152668201e-05  3.4979561436617411e-04  8.6446007819008912e-04  1.6239621309725308e-03  2.6130354120201451e-03  3.7918691265626768e-03  5.1024826424734080e-03  6.4769581690235821e-03  7.8462049834361267e-03  9.1477844991330205e-03  1.0331785208928348e-02  1.1364227276507700e-02  1.2228001228693015e-02  1.2921723894033897e-02  1.3457075408822483e-02  1.3855180021265913e-02  1.4142482583978100e-02  1.4346430305125243e-02  1.4491156623732033e-02  1.4593317190367629e-02  1.4658259001433095e-02  1.4676795229977731e-02  1.4622951889641578e-02  1.4453049027264294e-02  1.4106274834018096e-02  1.3506477244820389e-02  1.2564367224241051e-02  1.1179005563814850e-02  9.2376733161377653e-03  6.6141225677172977e-03  3.1664400795553323e-03  -1.2633499894351774e-03  -6.8459088178388959e-03  -1.3756498373828715e-02  -2.2162441204019657e-02  -3.2206867637453222e-02  -4.3989799238116294e-02  -5.7548301727997742e-02  -7.2838369462201222e-02  -8.9722241941054978e-02  -1.0796535239982950e-01  -1.2724599727195160e-01  -1.4717804199162166e-01  -1.6734356257655594e-01  -1.8732952613854939e-01  -2.0676155146866862e-01  -2.2532890379368048e-01  -2.4279761580468748e-01  -2.5901178839189948e-01  -2.7388556109709644e-01  -2.8738939949018572e-01  -2.9953430234449607e-01  -3.1035671774206625e-01  -3.1990586431669998e-01  -3.2823414699865433e-01  -3.3539062445163426e-01  -3.4141706333758703e-01  -3.4634595227013865e-01  -3.5019985749017019e-01  -3.5299160472410501e-01  -3.5472490589107947e-01  -3.5539517926115455e-01  -3.5499042216090471e-01  -3.5349207933640131e-01  -3.5087591396068429e-01  -3.4711293347504052e-01  -3.4217045801324025e-01  -3.3601344563710972e-01  -3.2860620905045690e-01  -3.1991467015099762e-01  -3.0990929555050395e-01  -2.9856882946874974e-01  -2.8588487883582625e-01  -2.7186729527340819e-01  -2.5655013513655495e-01  -2.3999776227569755e-01  -2.2231041210157623e-01  -2.0362830570638232e-01  -1.8413325941417871e-01  -1.6404676487017744e-01  -1.4362378991020425e-01  -1.2314210302162225e-01  -1.0288770114086827e-01  -8.3137778773173354e-02  -6.4143392777334871e-02  -4.6114320322774092e-02  -2.9208418101642823e-02  -1.3527064203104488e-02  8.8282312975162267e-04  1.4020837484619150e-02  2.5920731100748599e-02  3.6635586253836443e-02  4.6222358766324273e-02  5.4727236418453507e-02  6.2172803750844913e-02  6.8547792664830645e-02  7.3800417290619605e-02  7.7836939530127533e-02  8.0527915203220640e-02  8.1724941081524644e-02  8.1289798338061742e-02  7.9134821635578653e-02  7.5267978702872246e-02  6.9830071628982388e-02  6.3108319047391753e-02  5.5514597352035941e-02  4.7528906939995237e-02  3.9623932256304908e-02  3.2195343287777824e-02  2.5518594975213513e-02  1.9739485044674571e-02  1.4891951751615782e-02  1.0929822659761734e-02  7.7601726245531757e-03  5.2708283389081975e-03  3.3494343130098816e-03  1.8945523753996455e-03  8.2053266765401628e-04  5.8084262741537973e-05  -4.4779002216702082e-04  -7.4121385474413388e-04  -8.5931848432241678e-04  -8.3600657122961182e-04  -7.0538151009705047e-04  -5.0462065596354314e-04  -2.7765427152059649e-04  -7.7660207328531281e-05  1.5137303278712052e-05  -1.9919994854892484e-05  9.9235855158271569e-05  4.8172581532246992e-04  1.1503951242312859e-03  2.1018070358794680e-03  3.3045732276230397e-03  4.7015116193637827e-03  6.2173828900377141e-03  7.7691119228130712e-03  9.2764294191067988e-03  1.0670838725569119e-02  1.1901579314624646e-02  1.2938125483535703e-02  1.3769554218885172e-02  1.4401591801281543e-02  1.4852262541028508e-02  1.5146903077787590e-02  1.5313024675161760e-02  1.5375244370981513e-02  1.5350354675918802e-02  1.5242597315312099e-02  1.5039336458652850e-02  1.4707525861850241e-02  1.4191507259400712e-02  1.3412598257656257e-02  1.2270504268474163e-02  1.0645884487052507e-02  8.4027727211732298e-03  5.3895590644637325e-03  1.4382640273620459e-03  -3.6363587820297276e-03  -1.0034781424298436e-02  -1.7964541170134428e-02  -2.7624499711873727e-02  -3.9182418671225669e-02  -5.2748508222730785e-02  -6.8348429449644324e-02  -8.5899860554701127e-02  -1.0519801488283381e-01  -1.2591621501251149e-01  -1.4762564146982518e-01  -1.6983353354242925e-01  -1.9203329930426166e-01  -2.1375581325893095e-01  -2.3461075172006626e-01  -2.5431038960252927e-01  -2.7267400657460195e-01  -2.8961629283911133e-01  -3.0512608329047392e-01  -3.1924204848820309e-01  -3.3203042671660832e-01  -3.4356763887446340e-01  -3.5392859055667297e-01  -3.6318008048886130e-01  -3.7137806274277502e-01  -3.7856738743304835e-01  -3.8478284563606968e-01  -3.9005067174917302e-01  -3.9438998061850689e-01  -3.9781387640560234e-01  -4.0033014603894596e-01  -4.0194155372784024e-01  -4.0264580323722043e-01  -4.0243525226116972e-01  -4.0129646533674801e-01  -3.9920968993893224e-01  -3.9614834333345866e-01  -3.9207860849922782e-01  -3.8695925989129104e-01  -3.8074187170025825e-01  -3.7337160165613348e-01  -3.6478878458102632e-01  -3.5493160193722106e-01  -3.4374009840853914e-01  -3.3116177183817869e-01  -3.1715884027291696e-01  -3.0171706610271981e-01  -2.8485567980199028e-01  -2.6663751336164421e-01  -2.4717798907350766e-01  -2.2665122761449064e-01  -2.0529139637405180e-01  -1.8338767200158973e-01  -1.6127193621835254e-01  -1.3929952469883866e-01  -1.1782479895639926e-01  -9.7174650505795546e-02  -7.7623863262675410e-02  -5.9376231721577612e-02  -4.2554378135957971e-02  -2.7199558476455020e-02  -1.3280880769209262e-02  -7.1183956899190874e-04  1.0628703068554103e-02  2.0873912618121063e-02  3.0146951813958545e-02  3.8540945715776195e-02  4.6101861238856831e-02  5.2815311327044867e-02  5.8599076252917333e-02  6.3304381279282035e-02  6.6730017632601932e-02  6.8653088168876580e-02  6.8877084221024606e-02  6.7291374212534380e-02  6.3927432720560479e-02  5.8990986374410873e-02  5.2852085727562927e-02  4.5989647308129128e-02  3.8907139702801713e-02  3.2049051297524646e-02  2.5744680398389574e-02  2.0189940728381754e-02  1.5461053742927260e-02  1.1545475129992197e-02  8.3760975727282701e-03  5.8601175839308236e-03  3.8993662851237653e-03  2.4023485065625084e-03  1.2897437195685919e-03  4.9543332092340134e-04  -3.5127759144135559e-05  -3.4782798463286319e-04  -4.8320491721764194e-04  -4.7977261202719027e-04  -3.7719393920649746e-04  -2.2064365486576388e-04  -6.4285517704286990e-05  1.2540747881048920e-05  -2.5930047954764096e-05  1.2900302893149623e-04  6.1638201930233442e-04  1.4483098651064852e-03  2.6042746946538754e-03  4.0315285566777702e-03  5.6492844648221262e-03  7.3593750435755655e-03  9.0596885266194128e-03  1.0657396884563243e-02  1.2079125844362963e-02  1.3276490379370683e-02  1.4226814107366028e-02  1.4929957356277987e-02  1.5402685538961701e-02  1.5671949090982327e-02  1.5768035645725289e-02  1.5718058322512680e-02  1.5539865183917756e-02  1.5236304017354914e-02  1.4789873096586512e-02  1.4158069123523733e-02  1.3270057042139329e-02  1.2025400571331526e-02  1.0295269787592222e-02  7.9257258749722490e-03  4.7417205641695562e-03  5.5011392586277845e-04  -4.8589214300769693e-03  -1.1710304233256294e-02  -2.0238023417649211e-02  -3.0670135180202909e-02  -4.3202930298092149e-02  -5.7966869661420790e-02  -7.4990426068266836e-02  -9.4169239097532539e-02  -1.1524835574734528e-01  -1.3782537035497497e-01  -1.6137963096186800e-01  -1.8532583303411251e-01  -2