<?xml version="1.0"?>
<VTKFile type="UnstructuredGrid"  version="0.1"  >
<UnstructuredGrid>
<Piece  NumberOfPoints="16641" NumberOfCells="16384">
<Points>
<DataArray  type="Float64"  NumberOfComponents="3"  format="ascii">0 0 0  0.0078125 0 0  0.015625 0 0  0.0234375 0 0  0.03125 0 0  0.0390625 0 0  0.046875 0 0  0.0546875 0 0  0.0625 0 0  0.0703125 0 0  0.078125 0 0  0.0859375 0 0  0.09375 0 0  0.1015625 0 0  0.109375 0 0  0.1171875 0 0  0.125 0 0  0.1328125 0 0  0.140625 0 0  0.1484375 0 0  0.15625 0 0  0.1640625 0 0  0.171875 0 0  0.1796875 0 0  0.1875 0 0  0.1953125 0 0  0.203125 0 0  0.2109375 0 0  0.21875 0 0  0.2265625 0 0  0.234375 0 0  0.2421875 0 0  0.25 0 0  0.2578125 0 0  0.265625 0 0  0.2734375 0 0  0.28125 0 0  0.2890625 0 0  0.296875 0 0  0.3046875 0 0  0.3125 0 0  0.3203125 0 0  0.328125 0 0  0.3359375 0 0  0.34375 0 0  0.3515625 0 0  0.359375 0 0  0.3671875 0 0  0.375 0 0  0.3828125 0 0  0.390625 0 0  0.3984375 0 0  0.40625 0 0  0.4140625 0 0  0.421875 0 0  0.4296875 0 0  0.4375 0 0  0.4453125 0 0  0.453125 0 0  0.4609375 0 0  0.46875 0 0  0.4765625 0 0  0.484375 0 0  0.4921875 0 0  0.5 0 0  0.5078125 0 0  0.515625 0 0  0.5234375 0 0  0.53125 0 0  0.5390625 0 0  0.546875 0 0  0.5546875 0 0  0.5625 0 0  0.5703125 0 0  0.578125 0 0  0.5859375 0 0  0.59375 0 0  0.6015625 0 0  0.609375 0 0  0.6171875 0 0  0.625 0 0  0.6328125 0 0  0.640625 0 0  0.6484375 0 0  0.65625 0 0  0.6640625 0 0  0.671875 0 0  0.6796875 0 0  0.6875 0 0  0.6953125 0 0  0.703125 0 0  0.7109375 0 0  0.71875 0 0  0.7265625 0 0  0.734375 0 0  0.7421875 0 0  0.75 0 0  0.7578125 0 0  0.765625 0 0  0.7734375 0 0  0.78125 0 0  0.7890625 0 0  0.796875 0 0  0.8046875 0 0  0.8125 0 0  0.8203125 0 0  0.828125 0 0  0.8359375 0 0  0.84375 0 0  0.8515625 0 0  0.859375 0 0  0.8671875 0 0  0.875 0 0  0.8828125 0 0  0.890625 0 0  0.8984375 0 0  0.90625 0 0  0.9140625 0 0  0.921875 0 0  0.9296875 0 0  0.9375 0 0  0.9453125 0 0  0.953125 0 0  0.9609375 0 0  0.96875 0 0  0.9765625 0 0  0.984375 0 0  0.9921875 0 0  1 0 0  0 0.0078125 0  0.0078125 0.0078125 0  0.015625 0.0078125 0  0.0234375 0.0078125 0  0.03125 0.0078125 0  0.0390625 0.0078125 0  0.046875 0.0078125 0  0.0546875 0.0078125 0  0.0625 0.0078125 0  0.0703125 0.0078125 0  0.078125 0.0078125 0  0.0859375 0.0078125 0  0.09375 0.0078125 0  0.1015625 0.0078125 0  0.109375 0.0078125 0  0.1171875 0.0078125 0  0.125 0.0078125 0  0.1328125 0.0078125 0  0.140625 0.0078125 0  0.1484375 0.0078125 0  0.15625 0.0078125 0  0.1640625 0.0078125 0  0.171875 0.0078125 0  0.1796875 0.0078125 0  0.1875 0.0078125 0  0.1953125 0.0078125 0  0.203125 0.0078125 0  0.2109375 0.0078125 0  0.21875 0.0078125 0  0.2265625 0.0078125 0  0.234375 0.0078125 0  0.2421875 0.0078125 0  0.25 0.0078125 0  0.2578125 0.0078125 0  0.265625 0.0078125 0  0.2734375 0.0078125 0  0.28125 0.0078125 0  0.2890625 0.0078125 0  0.296875 0.0078125 0  0.3046875 0.0078125 0  0.3125 0.0078125 0  0.3203125 0.0078125 0  0.328125 0.0078125 0  0.3359375 0.0078125 0  0.34375 0.0078125 0  0.3515625 0.0078125 0  0.359375 0.0078125 0  0.3671875 0.0078125 0  0.375 0.0078125 0  0.3828125 0.0078125 0  0.390625 0.0078125 0  0.3984375 0.0078125 0  0.40625 0.0078125 0  0.4140625 0.0078125 0  0.421875 0.0078125 0  0.4296875 0.0078125 0  0.4375 0.0078125 0  0.4453125 0.0078125 0  0.453125 0.0078125 0  0.4609375 0.0078125 0  0.46875 0.0078125 0  0.4765625 0.0078125 0  0.484375 0.0078125 0  0.4921875 0.0078125 0  0.5 0.0078125 0  0.5078125 0.0078125 0  0.515625 0.0078125 0  0.5234375 0.0078125 0  0.53125 0.0078125 0  0.5390625 0.0078125 0  0.546875 0.0078125 0  0.5546875 0.0078125 0  0.5625 0.0078125 0  0.5703125 0.0078125 0  0.578125 0.0078125 0  0.5859375 0.0078125 0  0.59375 0.0078125 0  0.6015625 0.0078125 0  0.609375 0.0078125 0  0.6171875 0.0078125 0  0.625 0.0078125 0  0.6328125 0.0078125 0  0.640625 0.0078125 0  0.6484375 0.0078125 0  0.65625 0.0078125 0  0.6640625 0.0078125 0  0.671875 0.0078125 0  0.6796875 0.0078125 0  0.6875 0.0078125 0  0.6953125 0.0078125 0  0.703125 0.0078125 0  0.7109375 0.0078125 0  0.71875 0.0078125 0  0.7265625 0.0078125 0  0.734375 0.0078125 0  0.7421875 0.0078125 0  0.75 0.0078125 0  0.7578125 0.0078125 0  0.765625 0.0078125 0  0.7734375 0.0078125 0  0.78125 0.0078125 0  0.7890625 0.0078125 0  0.796875 0.0078125 0  0.8046875 0.0078125 0  0.8125 0.0078125 0  0.8203125 0.0078125 0  0.828125 0.0078125 0  0.8359375 0.0078125 0  0.84375 0.0078125 0  0.8515625 0.0078125 0  0.859375 0.0078125 0  0.8671875 0.0078125 0  0.875 0.0078125 0  0.8828125 0.0078125 0  0.890625 0.0078125 0  0.8984375 0.0078125 0  0.90625 0.0078125 0  0.9140625 0.0078125 0  0.921875 0.0078125 0  0.9296875 0.0078125 0  0.9375 0.0078125 0  0.9453125 0.0078125 0  0.953125 0.0078125 0  0.9609375 0.0078125 0  0.96875 0.0078125 0  0.9765625 0.0078125 0  0.984375 0.0078125 0  0.9921875 0.0078125 0  1 0.0078125 0  0 0.015625 0  0.0078125 0.015625 0  0.015625 0.015625 0  0.0234375 0.015625 0  0.03125 0.015625 0  0.0390625 0.015625 0  0.046875 0.015625 0  0.0546875 0.015625 0  0.0625 0.015625 0  0.0703125 0.015625 0  0.078125 0.015625 0  0.0859375 0.015625 0  0.09375 0.015625 0  0.1015625 0.015625 0  0.109375 0.015625 0  0.1171875 0.015625 0  0.125 0.015625 0  0.1328125 0.015625 0  0.140625 0.015625 0  0.1484375 0.015625 0  0.15625 0.015625 0  0.1640625 0.015625 0  0.171875 0.015625 0  0.1796875 0.015625 0  0.1875 0.015625 0  0.1953125 0.015625 0  0.203125 0.015625 0  0.2109375 0.015625 0  0.21875 0.015625 0  0.2265625 0.015625 0  0.234375 0.015625 0  0.2421875 0.015625 0  0.25 0.015625 0  0.2578125 0.015625 0  0.265625 0.015625 0  0.2734375 0.015625 0  0.28125 0.015625 0  0.2890625 0.015625 0  0.296875 0.015625 0  0.3046875 0.015625 0  0.3125 0.015625 0  0.3203125 0.015625 0  0.328125 0.015625 0  0.3359375 0.015625 0  0.34375 0.015625 0  0.3515625 0.015625 0  0.359375 0.015625 0  0.3671875 0.015625 0  0.375 0.015625 0  0.3828125 0.015625 0  0.390625 0.015625 0  0.3984375 0.015625 0  0.40625 0.015625 0  0.4140625 0.015625 0  0.421875 0.015625 0  0.4296875 0.015625 0  0.4375 0.015625 0  0.4453125 0.015625 0  0.453125 0.015625 0  0.4609375 0.015625 0  0.46875 0.015625 0  0.4765625 0.015625 0  0.484375 0.015625 0  0.4921875 0.015625 0  0.5 0.015625 0  0.5078125 0.015625 0  0.515625 0.015625 0  0.5234375 0.015625 0  0.53125 0.015625 0  0.5390625 0.015625 0  0.546875 0.015625 0  0.5546875 0.015625 0  0.5625 0.015625 0  0.5703125 0.015625 0  0.578125 0.015625 0  0.5859375 0.015625 0  0.59375 0.015625 0  0.6015625 0.015625 0  0.609375 0.015625 0  0.6171875 0.015625 0  0.625 0.015625 0  0.6328125 0.015625 0  0.640625 0.015625 0  0.6484375 0.015625 0  0.65625 0.015625 0  0.6640625 0.015625 0  0.671875 0.015625 0  0.6796875 0.015625 0  0.6875 0.015625 0  0.6953125 0.015625 0  0.703125 0.015625 0  0.7109375 0.015625 0  0.71875 0.015625 0  0.7265625 0.015625 0  0.734375 0.015625 0  0.7421875 0.015625 0  0.75 0.015625 0  0.7578125 0.015625 0  0.765625 0.015625 0  0.7734375 0.015625 0  0.78125 0.015625 0  0.7890625 0.015625 0  0.796875 0.015625 0  0.8046875 0.015625 0  0.8125 0.015625 0  0.8203125 0.015625 0  0.828125 0.015625 0  0.8359375 0.015625 0  0.84375 0.015625 0  0.8515625 0.015625 0  0.859375 0.015625 0  0.8671875 0.015625 0  0.875 0.015625 0  0.8828125 0.015625 0  0.890625 0.015625 0  0.8984375 0.015625 0  0.90625 0.015625 0  0.9140625 0.015625 0  0.921875 0.015625 0  0.9296875 0.015625 0  0.9375 0.015625 0  0.9453125 0.015625 0  0.953125 0.015625 0  0.9609375 0.015625 0  0.96875 0.015625 0  0.9765625 0.015625 0  0.984375 0.015625 0  0.9921875 0.015625 0  1 0.015625 0  0 0.0234375 0  0.0078125 0.0234375 0  0.015625 0.0234375 0  0.0234375 0.0234375 0  0.03125 0.0234375 0  0.0390625 0.0234375 0  0.046875 0.0234375 0  0.0546875 0.0234375 0  0.0625 0.0234375 0  0.0703125 0.0234375 0  0.078125 0.0234375 0  0.0859375 0.0234375 0  0.09375 0.0234375 0  0.1015625 0.0234375 0  0.109375 0.0234375 0  0.1171875 0.0234375 0  0.125 0.0234375 0  0.1328125 0.0234375 0  0.140625 0.0234375 0  0.1484375 0.0234375 0  0.15625 0.0234375 0  0.1640625 0.0234375 0  0.171875 0.0234375 0  0.1796875 0.0234375 0  0.1875 0.0234375 0  0.1953125 0.0234375 0  0.203125 0.0234375 0  0.2109375 0.0234375 0  0.21875 0.0234375 0  0.2265625 0.0234375 0  0.234375 0.0234375 0  0.2421875 0.0234375 0  0.25 0.0234375 0  0.2578125 0.0234375 0  0.265625 0.0234375 0  0.2734375 0.0234375 0  0.28125 0.0234375 0  0.2890625 0.0234375 0  0.296875 0.0234375 0  0.3046875 0.0234375 0  0.3125 0.0234375 0  0.3203125 0.0234375 0  0.328125 0.0234375 0  0.3359375 0.0234375 0  0.34375 0.0234375 0  0.3515625 0.0234375 0  0.359375 0.0234375 0  0.3671875 0.0234375 0  0.375 0.0234375 0  0.3828125 0.0234375 0  0.390625 0.0234375 0  0.3984375 0.0234375 0  0.40625 0.0234375 0  0.4140625 0.0234375 0  0.421875 0.0234375 0  0.4296875 0.0234375 0  0.4375 0.0234375 0  0.4453125 0.0234375 0  0.453125 0.0234375 0  0.4609375 0.0234375 0  0.46875 0.0234375 0  0.4765625 0.0234375 0  0.484375 0.0234375 0  0.4921875 0.0234375 0  0.5 0.0234375 0  0.5078125 0.0234375 0  0.515625 0.0234375 0  0.5234375 0.0234375 0  0.53125 0.0234375 0  0.5390625 0.0234375 0  0.546875 0.0234375 0  0.5546875 0.0234375 0  0.5625 0.0234375 0  0.5703125 0.0234375 0  0.578125 0.0234375 0  0.5859375 0.0234375 0  0.59375 0.0234375 0  0.6015625 0.0234375 0  0.609375 0.0234375 0  0.6171875 0.0234375 0  0.625 0.0234375 0  0.6328125 0.0234375 0  0.640625 0.0234375 0  0.6484375 0.0234375 0  0.65625 0.0234375 0  0.6640625 0.0234375 0  0.671875 0.0234375 0  0.6796875 0.0234375 0  0.6875 0.0234375 0  0.6953125 0.0234375 0  0.703125 0.0234375 0  0.7109375 0.0234375 0  0.71875 0.0234375 0  0.7265625 0.0234375 0  0.734375 0.0234375 0  0.7421875 0.0234375 0  0.75 0.0234375 0  0.7578125 0.0234375 0  0.765625 0.0234375 0  0.7734375 0.0234375 0  0.78125 0.0234375 0  0.7890625 0.0234375 0  0.796875 0.0234375 0  0.8046875 0.0234375 0  0.8125 0.0234375 0  0.8203125 0.0234375 0  0.828125 0.0234375 0  0.8359375 0.0234375 0  0.84375 0.0234375 0  0.8515625 0.0234375 0  0.859375 0.0234375 0  0.8671
[...]
<PointData  Scalars="v_sol"> 
<DataArray  type="Float64"  Name="v_sol"  format="ascii">-1.5383748689345523e-06  -3.7832688809952866e-06  1.7757067383051376e-06  1.0953431671405904e-05  2.1103830044322529e-05  3.0746860603629247e-05  3.8837940256722838e-05  4.4629877863501885e-05  4.7693808340204721e-05  4.7945263642013429e-05  4.5641356664598171e-05  4.1317783829892293e-05  3.5690404229526485e-05  2.9538825460130199e-05  2.3600112222906092e-05  1.8488341656524398e-05  1.4648031647743085e-05  1.2338413675826905e-05  1.1639945804024966e-05  1.2472519022824126e-05  1.4617579168532432e-05  1.7741533368835177e-05  2.1423234270808940e-05  2.5191089430297054e-05  2.8573329673892951e-05  3.1157819247601765e-05  3.2648112034600181e-05  3.2895529099436806e-05  3.1888660315246766e-05  2.9694515353314027e-05  2.6366013146126319e-05  2.1848712337123242e-05  1.5923791616204916e-05  8.2086941800823828e-06  -1.7920985202245462e-06  -1.4618745651591844e-05  -3.0805119478248510e-05  -5.0857312606405007e-05  -7.5246582821039074e-05  -1.0439490514319419e-04  -1.3864445184045575e-04  -1.7821118317389159e-04  -2.2311992300983523e-04  -2.7313116433125441e-04  -3.2769194294232314e-04  -3.8592320176351235e-04  -4.4661586934121954e-04  -5.0822270012680897e-04  -5.6888012762347636e-04  -6.2649479879343733e-04  -6.7888576867275018e-04  -7.2394188765333189e-04  -7.5975664350806812e-04  -7.8472204924991053e-04  -7.9757959481482508e-04  -7.9743400233077356e-04  -7.8373775023554660e-04  -7.5625498074776440e-04  -7.1501363817656402e-04  -6.6025473135228015e-04  -5.9238667143515582e-04  -5.1195105316171512e-04  -4.1960403791146939e-04  -3.1611525638585504e-04  -2.0238395340466391e-04  -7.9470267630169745e-05  5.1362049256261925e-05  1.8859657853232173e-04  3.3041516862580307e-04  4.7465608012149717e-04  6.1878745460460828e-04  7.5990440116382367e-04  8.9475749671702714e-04  1.0198192601776680e-03  1.1313925492622515e-03  1.2257614436072769e-03  1.2993805458470949e-03  1.3490935700724883e-03  1.3723667698308040e-03  1.3675177436509537e-03  1.3339161394516411e-03  1.2721304903105051e-03  1.1839957955104394e-03  1.0725805756646722e-03  9.4204090038069502e-04  7.9736249234665533e-04  6.4400906180538846e-04  4.8751289038333206e-04  3.3305829093910024e-04  1.8511540869436022e-04  4.7178305233755969e-05  -7.8353233155559706e-05  -1.9013170588272761e-04  -2.8767059086648477e-04  -3.7104162208389651e-04  -4.4052160290887200e-04  -4.9626607260830141e-04  -5.3809315207259129e-04  -5.6545046516068905e-04  -5.7760323514886467e-04  -5.7401900881868498e-04  -5.5484499163402075e-04  -5.2130965725241739e-04  -4.7587431971136279e-04  -4.2203864188460559e-04  -3.6384419677010032e-04  -3.0524811656026967e-04  -2.4957620016201207e-04  -1.9919812711399399e-04  -1.5545621869077905e-04  -1.1879129541328602e-04  -8.8971623154929594e-05  -6.5337615440605448e-05  -4.7006513794772634e-05  -3.3017724114513806e-05  -2.2425651903194163e-05  -1.4358370425453842e-05  -8.0570310520016116e-06  -2.9061827000937371e-06  1.5468099254090314e-06  5.5755294993591079e-06  9.2765290117723106e-06  1.2554003437114590e-05  1.5146021599690163e-05  1.6560695279523443e-05  1.6151503663591948e-05  1.2995788822966853e-05  6.4403365469888493e-06  -1.8341990962795841e-07  6.2128488221530295e-06  2.3263675235502956e-05  -6.5801965950220785e-06  -5.4067311919432987e-05  -1.0600519406502253e-04  -1.5525023623756662e-04  -1.9647901949935995e-04  -2.2595239201600735e-04  -2.4145062600789525e-04  -2.4256043816954010e-04  -2.3061277490245307e-04  -2.0838283439740462e-04  -1.7956171793057438e-04  -1.4815480681627360e-04  -1.1792927859966796e-04  -9.2005381862230446e-05  -7.2625021636499101e-05  -6.1081361794354885e-05  -5.7760592659577030e-05  -6.2240051923956603e-05  -7.3401696006606147e-05  -8.9548204681664566e-05  -1.0853788704391150e-04  -1.2796963860593904e-04  -1.4543882385524776e-04  -1.5884696461230727e-04  -1.6669588540024565e-04  -1.6825876225108540e-04  -1.6352790377796643e-04  -1.5290697850626239e-04  -1.3672484663728528e-04  -1.1474598413259019e-04  -8.5875161471198378e-05  -4.8169681846034867e-05  8.8452920898957211e-07  6.4009111572587679e-05  1.4386724180211679e-04  2.4296037954378802e-04  3.6360692059472002e-04  5.0787485893349677e-04  6.7741629304907244e-04  8.7322649231007384e-04  1.0953380390397581e-03  1.3424933356648680e-03  1.6119330143932657e-03  1.8993492238708162e-03  2.1988729252020479e-03  2.5030540916369821e-03  2.8030145552127941e-03  3.0889136857666223e-03  3.3506301361392607e-03  3.5784389861700681e-03  3.7635292336974401e-03  3.8983279587730259e-03  3.9766659857037251e-03  3.9938265032321771e-03  3.9465032765089387e-03  3.8326869047940787e-03  3.6515000152102387e-03  3.4030103098485641e-03  3.0880539117899906e-03  2.7081005768831625e-03  2.2651857426569393e-03  1.7619256547524622e-03  1.2016219833832608e-03  5.8845306571338424e-04  -7.2259655829825777e-05  -7.7373094401828372e-04  -1.5073662875126519e-03  -2.2624313956284333e-03  -3.0257866841824298e-03  -3.7817459642188081e-03  -4.5121245184774495e-03  -5.1965413581624171e-03  -5.8130297706176486e-03  -6.3389862778380265e-03  -6.7524484783336438e-03  -7.0336392491792948e-03  -7.1666544274046756e-03  -7.1411135477950942e-03  -6.9535536933147827e-03  -6.6083392615329667e-03  -6.1178953039824624e-03  -5.5021505183135743e-03  -4.7871880970283796e-03  -4.0032284682388003e-03  -3.1821808217281727e-03  -2.3550771438070302e-03  -1.5497273555683847e-03  -7.8890109895254077e-04  -8.9260170916936809e-05  5.3884918693195114e-04  1.0907630607648708e-03  1.5661683326028883e-03  1.9673219928053810e-03  2.2971518634275195e-03  2.5576188487892522e-03  2.7487224761606715e-03  2.8684567326390164e-03  2.9138386656021999e-03  2.8828324899537960e-03  2.7766407315884980e-03  2.6015788194400026e-03  2.3697616097442756e-03  2.0981909836755527e-03  1.8064410571662843e-03  1.5137038421154129e-03  1.2361585441454106e-03  9.8536286427182906e-04  7.6785942444730420e-04  5.8575747416974688e-04  4.3784359252421290e-04  3.2078754702994484e-04  2.3015711732601762e-04  1.6113806942702147e-04  1.0899321172159946e-04  6.9351511462257170e-05  3.8407546593230326e-05  1.3071154601098219e-05  -8.9227843923952532e-06  -2.8951259121071738e-05  -4.7469540901289337e-05  -6.4025997433209266e-05  -7.7193327580378612e-05  -8.4675556089433898e-05  -8.2667643311709540e-05  -6.7307732212672992e-05  -3.1112521573324105e-05  4.9214344569241143e-06  1.7756683811268969e-05  2.9182049525064747e-05  -9.1384285978065181e-05  -2.7019434771410482e-04  -4.6695202355191310e-04  -6.5354091432932306e-04  -8.0949733261062584e-04  -9.2038336984838910e-04  -9.7812532528338426e-04  -9.8137015713280033e-04  -9.3514001915851581e-04  -8.4962366654671190e-04  -7.3833239991849889e-04  -6.1600941572432046e-04  -4.9669233994883175e-04  -3.9221527147804134e-04  -3.1127710726095912e-04  -2.5904887048680016e-04  -2.3719015569464001e-04  -2.4411234911124119e-04  -2.7536207106382336e-04  -3.2407871968012436e-04  -3.8156492265432976e-04  -4.3805002185368119e-04  -4.8368597691011593e-04  -5.0968711603734172e-04  -5.0935720392710708e-04  -4.7863435535087619e-04  -4.1582935820650991e-04  -3.2048083038765680e-04  -1.9163102445765825e-04  -2.6153861844868162e-05  1.8217541860108063e-04  4.4249491604447067e-04  7.6572969889919366e-04  1.1631269109394543e-03  1.6450480886241170e-03  2.2202054501020405e-03  2.8950740592121687e-03  3.6730750865006344e-03  4.5534320530690696e-03  5.5299812111417931e-03  6.5901606537851756e-03  7.7142722328222574e-03  8.8753717593334190e-03  1.0040152006882887e-02  1.1170674018085504e-02  1.2226573720307495e-02  1.3167563199055782e-02  1.3956091714658616e-02  1.4559852829337640e-02  1.4953725385256515e-02  1.5120841857784567e-02  1.5052698413453013e-02  1.4748433004828618e-02  1.4213527693963505e-02  1.3458230033605233e-02  1.2495957252503964e-02  1.1341879144747304e-02  1.0011800224224581e-02  8.5213951199295725e-03  6.8858020473837774e-03  5.1195480777345738e-03  3.2367635158576076e-03  1.2516355842753411e-03  -8.2095020811200276e-04  -2.9646342238791160e-03  -5.1607284916713866e-03  -7.3873484607300663e-03  -9.6186065204799040e-03  -1.1823958987334246e-02  -1.3967815575793741e-02  -1.6009533096722876e-02  -1.7903918704594238e-02  -1.9602353653778111e-02  -2.1054608291510044e-02  -2.2211348865187715e-02  -2.3027236785383882e-02  -2.3464401558309027e-02  -2.3495950013660883e-02  -2.3109084051240666e-02  -2.2307368932158310e-02  -2.1111744563735619e-02  -1.9560010000288824e-02  -1.7704716420263604e-02  -1.5609637785906327e-02  -1.3345201644059928e-02  -1.0983412154603895e-02  -8.5928621073556692e-03  -6.2344088417249834e-03  -3.9580008729162789e-03  -1.8010130043147800e-03  2.1170644142125316e-04  2.0660460269575805e-03  3.7552718838621251e-03  5.2755190237067867e-03  6.6208519966333562e-03  7.7789354942171974e-03  8.7286076650714885e-03  9.4406525235713051e-03  9.8825894628520525e-03  1.0027182084793151e-02  9.8627670938262590e-03  9.4020599577666498e-03  8.6857905508326075e-03  7.7790287303100584e-03  6.7609458720135065e-03  5.7114725646343883e-03  4.6992750009456534e-03  3.7742994315149076e-03  2.9657971311731969e-03  2.2846715792670526e-03  1.7280569535762839e-03  1.2842305745043644e-03  9.3674201933892332e-04  6.6743298383496557e-04  4.5850014354899488e-04  2.9388542655483445e-04  1.6021201011097463e-04  4.7379467259620686e-05  -5.1119467752938619e-05  -1.3810941301531254e-04  -2.1277394815955874e-04  -2.7077510322929849e-04  -3.0433007244977855e-04  -3.0241985058297212e-04  -2.5231090452513708e-04  -1.4348040955908432e-04  1.0298613275988998e-06  2.5011289744889212e-05  -3.3552631538687001e-05  -2.9374074005019361e-04  -6.5259980825334979e-04  -1.0414094621295975e-03  -1.4074010688968114e-03  -1.7104319616481826e-03  -1.9225674092284860e-03  -2.0287943409768540e-03  -2.0273920970085295e-03  -1.9288430785031085e-03  -1.7532958756897848e-03  -1.5269932413776090e-03  -1.2783661701418361e-03  -1.0344499676554718e-03  -8.1808851241841772e-04  -6.4612638041206363e-04  -5.2854658138499057e-04  -4.6835018763951772e-04  -4.6192378044617648e-04  -4.9969798757995424e-04  -5.6702986605029130e-04  -6.4537614990004162e-04  -7.1387858014571059e-04  -7.5138743115664680e-04  -7.3869919144176066e-04  -6.6047474269934580e-04  -5.0612260543846197e-04  -2.6907398486819963e-04  5.5587518369331788e-05  4.7441567138144252e-04  9.9848942373427551e-04  1.6445776291682623e-03  2.4339955678141841e-03  3.3896685231849339e-03  4.5326357410941575e-03  5.8789980309711370e-03  7.4374450248176844e-03  9.2069474624580441e-03  1.1174303049028882e-02  1.3311717085038031e-02  1.5575239569003231e-02  1.7904982271155459e-02  2.0227418846277854e-02  2.2459618761584348e-02  2.4515123514850672e-02  2.6310829711314675e-02  2.7773820499808772e-02  2.8846953363201269e-02  2.9492285601351757e-02  2.9691969049972691e-02  2.9446823407235780e-02  2.8773204596645865e-02  2.7698949061763223e-02  2.6259131166186365e-02  2.4492194933579021e-02  2.2436802582843661e-02  2.0129539591034369e-02  1.7603466841045735e-02  1.4887421898375644e-02  1.2005932851701194e-02  8.9796077107052123e-03  5.8258791465131445e-03  2.5600116213354957e-03  -8.0369868439731718e-04  -4.2505819088867972e-03  -7.7641522727279538e-03  -1.1324609632799656e-02  -1.4907340816651097e-02  -1.8481501593903535e-02  -2.2008791563812174e-02  -2.5442572076832308e-02  -2.8727513153980332e-02  -3.1799977959712164e-02  -3.4589351330716632e-02  -3.7020475667453250e-02  -3.9017259922055444e-02  -4.0507372698646113e-02  -4.1427726047118529e-02  -4.1730235365563660e-02  -4.1387149654684575e-02  -4.0395149966954494e-02  -3.8777464866455648e-02  -3.6583475492267162e-02  -3.3885656544633519e-02  -3.0774143554204353e-02  -2.7349624364319293e-02  -2.3715514064119470e-02  -1.9970430831562483e-02  -1.6201854417422650e-02  -1.2481592552263913e-02  -8.8634058889424886e-03  -5.3829285718979426e-03  -2.0598970029263751e-03  1.0973765341591418e-03  4.0854683806405678e-03  6.8977019742493817e-03  9.5153631654769696e-03  1.1899965611249903e-02  1.3989030370873960e-02  1.5698232910306153e-02  1.6932149099494819e-02  1.7603639419558077e-02  1.7658237632428613e-02  1.7096105438047741e-02  1.5982672869905779e-02  1.4442115746726509e-02  1.2634774901399732e-02  1.0726651501320827e-02  8.8617713840825688e-03  7.1452349842828448e-03  5.6388585823871325e-03  4.3663661100137906e-03  3.3232068511657889e-03  2.4868875683066991e-03  1.8256218179269709e-03  1.3047365120005189e-03  8.9110925194353858e-04  5.5609512460754319e-04  2.7731187773201069e-04  3.9546843852264619e-05  -1.6499000996818522e-04  -3.3684808646559738e-04  -4.6976601189984649e-04  -5.5125654261517954e-04  -5.6362678828120432e-04  -4.8632100762843186e-04  -3.0174054406742625e-04  -8.2282800687125959e-06  2.9529466370849320e-05  -1.7114229466925226e-04  -6.2302296762648999e-04  -1.2044784442512791e-03  -1.8196739779499454e-03  -2.3899842784476395e-03  -2.8538851956939099e-03  -3.1691001199232564e-03  -3.3142768204274271e-03  -3.2891999535437704e-03  -3.1124939441699801e-03  -2.8171614466852776e-03  -2.4447861017489491e-03  -2.0394916501380415e-03  -1.6425877137407306e-03  -1.2884873769030884e-03  -1.0020885274768018e-03  -7.9749292771454452e-04  -6.7775426436684117e-04  -6.3531749558153429e-04  -6.5292003557558054e-04  -7.0491639032867301e-04  -7.5916444883841890e-04  -7.7964816647377875e-04  -7.2980688187201828e-04  -5.7610355277263659e-04  -2.9087605845807234e-04  1.4668913019008729e-04  7.5222508696112442e-04  1.5402132508192882e-03  2.5288011867718738e-03  3.7430573443449351e-03  5.2147186796928525e-03  6.9780712228722300e-03  9.0633621557712433e-03  1.1489826865094074e-02  1.4259685737276918e-02  1.7353209390426567e-02  2.0724692553738155e-02  2.4300122362701647e-02  2.7977861885202363e-02  3.1633212192308142e-02  3.5127009839953628e-02  3.8317530341856892e-02  4.1073858147107963e-02  4.3288127330766493e-02  4.4884184938746727e-02  4.5821265311258262e-02  4.6092656267715512e-02  4.5720484192411578e-02  4.4748303204627755e-02  4.3233139842883510e-02  4.1238239337372175e-02  3.8827228819073981e-02  3.6059939899777710e-02  3.2989802272395112e-02  2.9662541605993412e-02  2.6115859857111259e-02  2.2379797542412785e-02  1.8477538161839318e-02  1.4426484980225902e-02  1.0239504244184508e-02  5.9262786251097427e-03  1.4947503046054752e-03  -3.0473460440776003e-03  -7.6908517319067542e-03  -1.2423447172239928e-02  -1.7227816738086394e-02  -2.2079746880269639e-02  -2.6946226409829591e-02  -3.1783666637956669e-02  -3.6536419011869894e-02  -4.1135832167679756e-02  -4.5500148644045127e-02  -4.9535576817839336e-02  -5.3138862493393328e-02  -5.6201600525787931e-02  -5.8616348585719423e-02  -6.0284325977680776e-02  -6.1124123385700120e-02  -6.1080473026624137e-02  -6.0131832002333463e-02  -5.8295427257697242e-02  -5.5628592416108298e-02  -5.2225724563848337e-02  -4.8210929044351883e-02  -4.3727235292486379e-02  -3.8923930431052703e-02  -3.3943878297195612e-02  -2.8912583958867172e-02  -2.3930294115891794e-02  -1.9067781501812785e-02  -1.4365874725608673e-02  -9.8384352353995622e-03  -5.4783951700954998e-03  -1.2665582336212108e-03  2.8170734101030026e-03  6.7798986455289024e-03  1.0602396113839410e-02  1.4225271630869748e-02  1.7541978279780317e-02  2.0401577959669501e-02  2.2626325814428184e-02  2.4044886567086934e-02  2.4535579686815391e-02  2.4066762405719182e-02  2.2718139153896689e-02  2.0671812187573444e-02  1.8174589021984124e-02  1.5486131641203403e-02  1.2832302566436389e-02  1.0377226984193941e-02  8.2166983317508036e-03  6.3870977816209967e-03  4.8813937396908211e-03  3.6656775728979986e-03  2.6929472771059591e-03  1.9133062716961023e-03  1.2809007614416118e-03  7.5821872867418085e-04  3.1835456889616203e-04  -5.4214010486914125e-05  -3.6384079110362389e-04  -6.0449676729296706e-04  -7.6089569439736734e-04  -8.0996428891221841e-04  -7.2308969010180079e-04  -4.6969145971914334e-04  -1.8495426439180366e-05  3.2799742801594954e-05  -3.8129760477134070e-04  -1.0815675506710199e-03  -1.9289793316186403e-03  -2.8008104985252566e-03  -3.5914342928095419e-03  -4.2171564071804973e-03  -4.6218766915077456e-03  -4.7801360951259114e-03  -4.6968772483593864e-03  -4.4031902614721273e-03  -3.9490452019992775e-03  -3.3945396021874386e-03  -2.8013151055480351e-03  -2.2253631802177268e-03  -1.7118289787498985e-03  -1.2918526914191542e-03  -9.8111089287486464e-04  -7.7957354599130380e-04  -6.7205542057726406e-04  -6.2935945756131036e-04  -6.1009372850765397e-04  -5.6345080015085167e-04  -4.3319151165963906e-04  -1.6264967873305089e-04  3.0015945697960166e-04  9.9891952938102428e-04  1.9685180049468518e-03  3.2382951943786338e-03  4.8377516843958164e-03  6.8015972183226416e-03  9.1706039802036277e-03  1.1986390287312932e-02  1.5281191298006733e-02  1.9065838675827625e-02  2.3319035812125837e-02  2.7979585558761146e-02  3.2942570735576701e-02  3.8060699460635207e-02  4.3152068157406270e-02  4.8014766497086997e-02  5.2446823497300156e-02  5.6267763112521747e-02  5.9336929868742887e-02  6.1564586223230335e-02  6.2914143438091041e-02  6.3396513277395442e-02  6.3059336314417347e-02  6.1974321627080817e-02  6.0225361513717025e-02  5.7899013320819190e-02  5.5077882129161357e-02  5.1836685456472499e-02  4.8240402210451200e-02  4.4343830106182619e-02  4.0191973832427570e-02  3.5820853082483277e-02  3.1258480925532919e-02  2.6525888210420803e-02  2.1638151589806545e-02  1.6605429740236592e-02  1.1434034853746465e-02  6.1275754631961114e-03  6.8820937030021731e-04  -4.8819562303136724e-03  -1.0579283297296987e-02  -1.6396813276481709e-02  -2.2322255119243326e-02  -2.8335759300270318e-02  -3.4407522076254075e-02  -4.0495316140169053e-02  -4.6542116160765208e-02  -5.2474076355087676e-02  -5.8199218096500707e-02  -6.3607281070668625e-02  -6.8571255127951120e-02  -7.2951104428622293e-02  -7.6600074390064415e-02  -7.9373698072838936e-02  -8.1141176362470063e-02  -8.1798230701041127e-02  -8.1279919615229207e-02  -7.9571435094456910e-02  -7.6714746878189077e-02  -7.2809299803516261e-02  -6.8005828899621881e-02  -6.2493603666394282e-02  -5.6482744545171902e-02  -5.0184287733882664e-02  -4.3791087380294150e-02  -3.7462315156328446e-02  -3.1313390851987449e-02  -2.5412008185662013e-02  -1.9779919914143500e-02  -1.4399607859058704e-02  -9.2249408328085227e-03  -4.1952325169573928e-03  7.4760033658887218e-04  5.6392265545126118e-03  1.0471812812320427e-02  1.5174864846507220e-02  1.9603578988289475e-02  2.3542124123333924e-02  2.6728688147137504e-02  2.8904062222108451e-02  2.9875604222563357e-02  2.9577164042007789e-02  2.8100573686923720e-02  2.5682434774441178e-02  2.2649559071624182e-02  1.9345570829599222e-02  1.6066834656434187e-02  1.3025879287489068e-02  1.0344387175226529e-02  8.0665925326844357e-03  6.1813966688790334e-03  4.6446965836869280e-03  3.3977920266603551e-03  2.3807816367389708e-03  1.5413080749025090e-03  8.3950400664531616e-04  2.5010064819025734e-04  -2.3737867039624866e-04  -6.1950836140330253e-04  -8.8037346180375457e-04  -9.9301870404110387e-04  -9.2091238833033476e-04  -6.1904846212280527e-04  -2.8435151867555317e-05  3.5908882692821324e-05  -6.6214318340492451e-04  -1.6728254315279125e-03  -2.8341530380201234e-03  -3.9932684042489393e-03  -5.0150351521826330e-03  -5.7927855931831206e-03  -6.2582419320412423e-03  -6.3860183119802301e-03  -6.1921907215790155e-03  -5.7268282847642024e-03  -5.0626013401367112e-03  -4.2820927947495426e-03  -3.4662139769543587e-03  -2.6852017341857100e-03  -1.9926537963185129e-03  -1.4222767650736946e-03  -9.8663116889864352e-04  -6.7713847744527720e-04  -4.6487038443323941e-04  -3.0204923022361527e-04  -1.2459441376367635e-04  1.4376266612500048e-04  5.8554220018870186e-04  1.2823358849019225e-03  2.3080888156852475e-03  3.7252448159917724e-03  5.5855319158367748e-03  7.9349013090221528e-03  1.0819172810732547e-02  1.4285300758843806e-02  1.8374590260609360e-02  2.3108326716903174e-02  2.8470263316188401e-02  3.4391559917308780e-02  4.0742366106989024e-02  4.7332393780494315e-02  5.3921819229701518e-02  6.024274238973