<?xml version="1.0"?>
<VTKFile type="UnstructuredGrid"  version="0.1"  >
<UnstructuredGrid>
<Piece  NumberOfPoints="81" NumberOfCells="64">
<Points>
<DataArray  type="Float64"  NumberOfComponents="3"  format="ascii">0 0 0  0.125 0 0  0.25 0 0  0.375 0 0  0.5 0 0  0.625 0 0  0.75 0 0  0.875 0 0  1 0 0  0 0.125 0  0.125 0.125 0  0.25 0.125 0  0.375 0.125 0  0.5 0.125 0  0.625 0.125 0  0.75 0.125 0  0.875 0.125 0  1 0.125 0  0 0.25 0  0.125 0.25 0  0.25 0.25 0  0.375 0.25 0  0.5 0.25 0  0.625 0.25 0  0.75 0.25 0  0.875 0.25 0  1 0.25 0  0 0.375 0  0.125 0.375 0  0.25 0.375 0  0.375 0.375 0  0.5 0.375 0  0.625 0.375 0  0.75 0.375 0  0.875 0.375 0  1 0.375 0  0 0.5 0  0.125 0.5 0  0.25 0.5 0  0.375 0.5 0  0.5 0.5 0  0.625 0.5 0  0.75 0.5 0  0.875 0.5 0  1 0.5 0  0 0.625 0  0.125 0.625 0  0.25 0.625 0  0.375 0.625 0  0.5 0.625 0  0.625 0.625 0  0.75 0.625 0  0.875 0.625 0  1 0.625 0  0 0.75 0  0.125 0.75 0  0.25 0.75 0  0.375 0.75 0  0.5 0.75 0  0.625 0.75 0  0.75 0.75 0  0.875 0.75 0  1 0.75 0  0 0.875 0  0.125 0.875 0  0.25 0.875 0  0.375 0.875 0  0.5 0.875 0  0.625 0.875 0  0.75 0.875 0  0.875 0.875 0  1 0.875 0  0 1 0  0.125 1 0  0.25 1 0  0.375 1 0  0.5 1 0  0.625 1 0  0.75 1 0  0.875 1 0  1 1 0  </DataArray>
</Points>
<Cells>
<DataArray  type="UInt32"  Name="connectivity"  format="ascii">0 1 10 9  1 2 11 10  2 3 12 11  3 4 13 12  4 5 14 13  5 6 15 14  6 7 16 15  7 8 17 16  9 10 19 18  10 11 20 19  11 12 21 20  12 13 22 21  13 14 23 22  14 15 24 23  15 16 25 24  16 17 26 25  18 19 28 27  19 20 29 28  20 21 30 29  21 22 31 30  22 23 32 31  23 24 33 32  24 25 34 33  25 26 35 34  27 28 37 36  28 29 38 37  29 30 39 38  30 31 40 39  31 32 41 40  32 33 42 41  33 34 43 42  34 35 44 43  36 37 46 45  37 38 47 46  38 39 48 47  39 40 49 48  40 41 50 49  41 42 51 50  42 43 52 51  43 44 53 52  45 46 55 54  46 47 56 55  47 48 57 56  48 49 58 57  49 50 59 58  50 51 60 59  51 52 61 60  52 53 62 61  54 55 64 63  55 56 65 64  56 57 66 65  57 58 67 66  58 59 68 67  59 60 69 68  60 61 70 69  61 62 71 70  63 64 73 72  64 65 74 73  65 66 75 74  66 67 76 75  67 68 77 76  68 69 78 77  69 70 79 78  70 71 80 79  </DataArray>
<DataArray  type="UInt32"  Name="offsets"  format="ascii">4 8 12 16 20 24 28 32 36 40 44 48 52 56 60 64 68 72 76 80 84 88 92 96 100 104 108 112 116 120 124 128 132 136 140 144 148 152 156 160 164 168 172 176 180 184 188 192 196 200 204 208 212 216 220 224 228 232 236 240 244 248 252 256 </DataArray>
<DataArray  type="UInt8"  Name="types"  format="ascii">9 9 9 9 9 9 9 9 9 9 9 9 9 9 9 9 9 9 9 9 9 9 9 9 9 9 9 9 9 9 9 9 9 9 9 9 9 9 9 9 9 9 9 9 9 9 9 9 9 9 9 9 9 9 9 9 9 9 9 9 9 9 9 9 </DataArray>
</Cells>
<PointData  Scalars="u_sol"> 
<DataArray  type="Float64"  Name="u_sol"  format="ascii">-3.5118098421053647e-05  1.7628609187200460e-04  6.6091625582299224e-04  1.1913426841070149e-03  1.5472180763138105e-03  1.5465443032457360e-03  1.1226006019373828e-03  3.9991102480477127e-04  -7.5566735494052382e-05  -4.1985575921353585e-04  2.1075898835399474e-03  7.9017347311506371e-03  1.4243296261717164e-02  1.8498083783412524e-02  1.8490006464717431e-02  1.3421391032213237e-02  4.7811020906937110e-03  -9.0346673881025246e-04  -4.6571222913822881e-04  2.3377786346278667e-03  8.7647614360485630e-03  1.5798945852417787e-02  2.0518442664705493e-02  2.0509480171691224e-02  1.4887258914202553e-02  5.3032798402219677e-03  -1.0021416870067616e-03  -2.8887540749754158e-04  1.4500943869914758e-03  5.4366680904947926e-03  9.7998831858275865e-03  1.2727324128408558e-02  1.2721765680701482e-02  9.2343732240243778e-03  3.2895550893508544e-03  -6.2161452205465660e-04  -1.2625121550958148e-10  2.3047647210866495e-10  9.5095324193286701e-11  1.0508138062492213e-09  -6.7051624409036881e-10  1.8471319709345018e-09  1.0072650543507809e-09  -5.7864515685523282e-10  7.9209937898063236e-10  2.8887529654677803e-04  -1.4500942213627156e-03  -5.4366682403240111e-03  -9.7998825083797456e-03  -1.2727324910875047e-02  -1.2721763207952782e-02  -9.2343713012939324e-03  -3.2895553633009865e-03  6.2161523681778072e-04  4.6571235067887381e-04  -2.3377788701640975e-03  -8.7647616148880045e-03  -1.5798946857150515e-02  -2.0518442247199755e-02  -2.0509481178789701e-02  -1.4887259023754618e-02  -5.3032792448526695e-03  1.0021409984626759e-03  4.1985587918563723e-04  -2.1075900549185600e-03  -7.9017345320412397e-03  -1.4243296980338738e-02  -1.8498082859932180e-02  -1.8490009535380755e-02  -1.3421393556587590e-02  -4.7811018505169618e-03  9.0346594423881853e-04  3.5118089799860939e-05  -1.7628607074622970e-04  -6.6091618774917515e-04  -1.1913426947847284e-03  -1.5472178526837722e-03  -1.5465447870775309e-03  -1.1226011932360268e-03  -3.9991099010905807e-04  7.5566687996652204e-05  </DataArray> 
</PointData> 
</Piece>
</UnstructuredGrid>
</VTKFile>