<?xml version="1.0"?>
<VTKFile type="UnstructuredGrid"  version="0.1"  >
<UnstructuredGrid>
<Piece  NumberOfPoints="81" NumberOfCells="64">
<Points>
<DataArray  type="Float64"  NumberOfComponents="3"  format="ascii">0 0 0  0.125 0 0  0.25 0 0  0.375 0 0  0.5 0 0  0.625 0 0  0.75 0 0  0.875 0 0  1 0 0  0 0.125 0  0.125 0.125 0  0.25 0.125 0  0.375 0.125 0  0.5 0.125 0  0.625 0.125 0  0.75 0.125 0  0.875 0.125 0  1 0.125 0  0 0.25 0  0.125 0.25 0  0.25 0.25 0  0.375 0.25 0  0.5 0.25 0  0.625 0.25 0  0.75 0.25 0  0.875 0.25 0  1 0.25 0  0 0.375 0  0.125 0.375 0  0.25 0.375 0  0.375 0.375 0  0.5 0.375 0  0.625 0.375 0  0.75 0.375 0  0.875 0.375 0  1 0.375 0  0 0.5 0  0.125 0.5 0  0.25 0.5 0  0.375 0.5 0  0.5 0.5 0  0.625 0.5 0  0.75 0.5 0  0.875 0.5 0  1 0.5 0  0 0.625 0  0.125 0.625 0  0.25 0.625 0  0.375 0.625 0  0.5 0.625 0  0.625 0.625 0  0.75 0.625 0  0.875 0.625 0  1 0.625 0  0 0.75 0  0.125 0.75 0  0.25 0.75 0  0.375 0.75 0  0.5 0.75 0  0.625 0.75 0  0.75 0.75 0  0.875 0.75 0  1 0.75 0  0 0.875 0  0.125 0.875 0  0.25 0.875 0  0.375 0.875 0  0.5 0.875 0  0.625 0.875 0  0.75 0.875 0  0.875 0.875 0  1 0.875 0  0 1 0  0.125 1 0  0.25 1 0  0.375 1 0  0.5 1 0  0.625 1 0  0.75 1 0  0.875 1 0  1 1 0  </DataArray>
</Points>
<Cells>
<DataArray  type="UInt32"  Name="connectivity"  format="ascii">0 1 10 9  1 2 11 10  2 3 12 11  3 4 13 12  4 5 14 13  5 6 15 14  6 7 16 15  7 8 17 16  9 10 19 18  10 11 20 19  11 12 21 20  12 13 22 21  13 14 23 22  14 15 24 23  15 16 25 24  16 17 26 25  18 19 28 27  19 20 29 28  20 21 30 29  21 22 31 30  22 23 32 31  23 24 33 32  24 25 34 33  25 26 35 34  27 28 37 36  28 29 38 37  29 30 39 38  30 31 40 39  31 32 41 40  32 33 42 41  33 34 43 42  34 35 44 43  36 37 46 45  37 38 47 46  38 39 48 47  39 40 49 48  40 41 50 49  41 42 51 50  42 43 52 51  43 44 53 52  45 46 55 54  46 47 56 55  47 48 57 56  48 49 58 57  49 50 59 58  50 51 60 59  51 52 61 60  52 53 62 61  54 55 64 63  55 56 65 64  56 57 66 65  57 58 67 66  58 59 68 67  59 60 69 68  60 61 70 69  61 62 71 70  63 64 73 72  64 65 74 73  65 66 75 74  66 67 76 75  67 68 77 76  68 69 78 77  69 70 79 78  70 71 80 79  </DataArray>
<DataArray  type="UInt32"  Name="offsets"  format="ascii">4 8 12 16 20 24 28 32 36 40 44 48 52 56 60 64 68 72 76 80 84 88 92 96 100 104 108 112 116 120 124 128 132 136 140 144 148 152 156 160 164 168 172 176 180 184 188 192 196 200 204 208 212 216 220 224 228 232 236 240 244 248 252 256 </DataArray>
<DataArray  type="UInt8"  Name="types"  format="ascii">9 9 9 9 9 9 9 9 9 9 9 9 9 9 9 9 9 9 9 9 9 9 9 9 9 9 9 9 9 9 9 9 9 9 9 9 9 9 9 9 9 9 9 9 9 9 9 9 9 9 9 9 9 9 9 9 9 9 9 9 9 9 9 9 </DataArray>
</Cells>
<PointData  Scalars="v_sol"> 
<DataArray  type="Float64"  Name="v_sol"  format="ascii">1.7710908611546341e-05  4.4629427692157076e-04  6.3307384766353155e-04  5.5562393798504878e-04  2.3402705901059325e-04  -2.4987633822151346e-04  -7.1511673717048428e-04  -8.5437228966186367e-04  -1.1701842179805675e-04  -9.0868818030917349e-05  -2.2897471241585528e-03  -3.2480311012097309e-03  -2.8506761756725407e-03  -1.2006862234992407e-03  1.2820012569840285e-03  3.6689631877495680e-03  4.3834186599446398e-03  6.0038385438152984e-04  -2.9449339240768908e-04  -7.4209173893500756e-03  -1.0526660288417474e-02  -9.2388367991324688e-03  -3.8913664317517050e-03  4.1549112691428624e-03  1.1890866690019701e-02  1.4206367178685552e-02  1.9457649187028109e-03  -4.6412233698500877e-04  -1.1695435890850129e-02  -1.6590117195519213e-02  -1.4560491960051146e-02  -6.1328327463042150e-03  6.5481871130074762e-03  1.8740125895977792e-02  2.2389358214617693e-02  3.0665354348231311e-03  -5.2899062347644367e-04  -1.3330067972084473e-02  -1.8908862470801514e-02  -1.6595562917919228e-02  -6.9899969829887556e-03  7.4634036268600547e-03  2.1359376338899578e-02  2.5518638432644472e-02  3.4951344598718025e-03  -4.6412203003936582e-04  -1.1695436596189913e-02  -1.6590116860605967e-02  -1.4560493333746181e-02  -6.1328292962991122e-03  6.5481783958465066e-03  1.8740135625021470e-02  2.2389353108057865e-02  3.0665399069211593e-03  -2.9449309473556857e-04  -7.4209179424660730e-03  -1.0526659814763939e-02  -9.2388381402293621e-03  -3.8913634791359875e-03  4.1549014130821257e-03  1.1890877074164282e-02  1.4206362721452490e-02  1.9457694170789291e-03  -9.0868747937298248e-05  -2.2897471981315480e-03  -3.2480309570506244e-03  -2.8506765208567569e-03  -1.2006854743527851e-03  1.2819973760442834e-03  3.6689669641725587e-03  4.3834175726254788e-03  6.0038522082416185e-04  1.7710890418943400e-05  4.4629429947855227e-04  6.3307380756607711e-04  5.5562401754757798e-04  2.3402692004478691e-04  -2.4987561467624842e-04  -7.1511745199225258e-04  -8.5437206942768772e-04  -1.1701870763655922e-04  </DataArray> 
</PointData> 
</Piece>
</UnstructuredGrid>
</VTKFile>