<?xml version="1.0"?>
<VTKFile type="UnstructuredGrid"  version="0.1"  >
<UnstructuredGrid>
<Piece  NumberOfPoints="16641" NumberOfCells="16384">
<Points>
<DataArray  type="Float64"  NumberOfComponents="3"  format="ascii">0 0 0  0.0078125 0 0  0.015625 0 0  0.0234375 0 0  0.03125 0 0  0.0390625 0 0  0.046875 0 0  0.0546875 0 0  0.0625 0 0  0.0703125 0 0  0.078125 0 0  0.0859375 0 0  0.09375 0 0  0.1015625 0 0  0.109375 0 0  0.1171875 0 0  0.125 0 0  0.1328125 0 0  0.140625 0 0  0.1484375 0 0  0.15625 0 0  0.1640625 0 0  0.171875 0 0  0.1796875 0 0  0.1875 0 0  0.1953125 0 0  0.203125 0 0  0.2109375 0 0  0.21875 0 0  0.2265625 0 0  0.234375 0 0  0.2421875 0 0  0.25 0 0  0.2578125 0 0  0.265625 0 0  0.2734375 0 0  0.28125 0 0  0.2890625 0 0  0.296875 0 0  0.3046875 0 0  0.3125 0 0  0.3203125 0 0  0.328125 0 0  0.3359375 0 0  0.34375 0 0  0.3515625 0 0  0.359375 0 0  0.3671875 0 0  0.375 0 0  0.3828125 0 0  0.390625 0 0  0.3984375 0 0  0.40625 0 0  0.4140625 0 0  0.421875 0 0  0.4296875 0 0  0.4375 0 0  0.4453125 0 0  0.453125 0 0  0.4609375 0 0  0.46875 0 0  0.4765625 0 0  0.484375 0 0  0.4921875 0 0  0.5 0 0  0.5078125 0 0  0.515625 0 0  0.5234375 0 0  0.53125 0 0  0.5390625 0 0  0.546875 0 0  0.5546875 0 0  0.5625 0 0  0.5703125 0 0  0.578125 0 0  0.5859375 0 0  0.59375 0 0  0.6015625 0 0  0.609375 0 0  0.6171875 0 0  0.625 0 0  0.6328125 0 0  0.640625 0 0  0.6484375 0 0  0.65625 0 0  0.6640625 0 0  0.671875 0 0  0.6796875 0 0  0.6875 0 0  0.6953125 0 0  0.703125 0 0  0.7109375 0 0  0.71875 0 0  0.7265625 0 0  0.734375 0 0  0.7421875 0 0  0.75 0 0  0.7578125 0 0  0.765625 0 0  0.7734375 0 0  0.78125 0 0  0.7890625 0 0  0.796875 0 0  0.8046875 0 0  0.8125 0 0  0.8203125 0 0  0.828125 0 0  0.8359375 0 0  0.84375 0 0  0.8515625 0 0  0.859375 0 0  0.8671875 0 0  0.875 0 0  0.8828125 0 0  0.890625 0 0  0.8984375 0 0  0.90625 0 0  0.9140625 0 0  0.921875 0 0  0.9296875 0 0  0.9375 0 0  0.9453125 0 0  0.953125 0 0  0.9609375 0 0  0.96875 0 0  0.9765625 0 0  0.984375 0 0  0.9921875 0 0  1 0 0  0 0.0078125 0  0.0078125 0.0078125 0  0.015625 0.0078125 0  0.0234375 0.0078125 0  0.03125 0.0078125 0  0.0390625 0.0078125 0  0.046875 0.0078125 0  0.0546875 0.0078125 0  0.0625 0.0078125 0  0.0703125 0.0078125 0  0.078125 0.0078125 0  0.0859375 0.0078125 0  0.09375 0.0078125 0  0.1015625 0.0078125 0  0.109375 0.0078125 0  0.1171875 0.0078125 0  0.125 0.0078125 0  0.1328125 0.0078125 0  0.140625 0.0078125 0  0.1484375 0.0078125 0  0.15625 0.0078125 0  0.1640625 0.0078125 0  0.171875 0.0078125 0  0.1796875 0.0078125 0  0.1875 0.0078125 0  0.1953125 0.0078125 0  0.203125 0.0078125 0  0.2109375 0.0078125 0  0.21875 0.0078125 0  0.2265625 0.0078125 0  0.234375 0.0078125 0  0.2421875 0.0078125 0  0.25 0.0078125 0  0.2578125 0.0078125 0  0.265625 0.0078125 0  0.2734375 0.0078125 0  0.28125 0.0078125 0  0.2890625 0.0078125 0  0.296875 0.0078125 0  0.3046875 0.0078125 0  0.3125 0.0078125 0  0.3203125 0.0078125 0  0.328125 0.0078125 0  0.3359375 0.0078125 0  0.34375 0.0078125 0  0.3515625 0.0078125 0  0.359375 0.0078125 0  0.3671875 0.0078125 0  0.375 0.0078125 0  0.3828125 0.0078125 0  0.390625 0.0078125 0  0.3984375 0.0078125 0  0.40625 0.0078125 0  0.4140625 0.0078125 0  0.421875 0.0078125 0  0.4296875 0.0078125 0  0.4375 0.0078125 0  0.4453125 0.0078125 0  0.453125 0.0078125 0  0.4609375 0.0078125 0  0.46875 0.0078125 0  0.4765625 0.0078125 0  0.484375 0.0078125 0  0.4921875 0.0078125 0  0.5 0.0078125 0  0.5078125 0.0078125 0  0.515625 0.0078125 0  0.5234375 0.0078125 0  0.53125 0.0078125 0  0.5390625 0.0078125 0  0.546875 0.0078125 0  0.5546875 0.0078125 0  0.5625 0.0078125 0  0.5703125 0.0078125 0  0.578125 0.0078125 0  0.5859375 0.0078125 0  0.59375 0.0078125 0  0.6015625 0.0078125 0  0.609375 0.0078125 0  0.6171875 0.0078125 0  0.625 0.0078125 0  0.6328125 0.0078125 0  0.640625 0.0078125 0  0.6484375 0.0078125 0  0.65625 0.0078125 0  0.6640625 0.0078125 0  0.671875 0.0078125 0  0.6796875 0.0078125 0  0.6875 0.0078125 0  0.6953125 0.0078125 0  0.703125 0.0078125 0  0.7109375 0.0078125 0  0.71875 0.0078125 0  0.7265625 0.0078125 0  0.734375 0.0078125 0  0.7421875 0.0078125 0  0.75 0.0078125 0  0.7578125 0.0078125 0  0.765625 0.0078125 0  0.7734375 0.0078125 0  0.78125 0.0078125 0  0.7890625 0.0078125 0  0.796875 0.0078125 0  0.8046875 0.0078125 0  0.8125 0.0078125 0  0.8203125 0.0078125 0  0.828125 0.0078125 0  0.8359375 0.0078125 0  0.84375 0.0078125 0  0.8515625 0.0078125 0  0.859375 0.0078125 0  0.8671875 0.0078125 0  0.875 0.0078125 0  0.8828125 0.0078125 0  0.890625 0.0078125 0  0.8984375 0.0078125 0  0.90625 0.0078125 0  0.9140625 0.0078125 0  0.921875 0.0078125 0  0.9296875 0.0078125 0  0.9375 0.0078125 0  0.9453125 0.0078125 0  0.953125 0.0078125 0  0.9609375 0.0078125 0  0.96875 0.0078125 0  0.9765625 0.0078125 0  0.984375 0.0078125 0  0.9921875 0.0078125 0  1 0.0078125 0  0 0.015625 0  0.0078125 0.015625 0  0.015625 0.015625 0  0.0234375 0.015625 0  0.03125 0.015625 0  0.0390625 0.015625 0  0.046875 0.015625 0  0.0546875 0.015625 0  0.0625 0.015625 0  0.0703125 0.015625 0  0.078125 0.015625 0  0.0859375 0.015625 0  0.09375 0.015625 0  0.1015625 0.015625 0  0.109375 0.015625 0  0.1171875 0.015625 0  0.125 0.015625 0  0.1328125 0.015625 0  0.140625 0.015625 0  0.1484375 0.015625 0  0.15625 0.015625 0  0.1640625 0.015625 0  0.171875 0.015625 0  0.1796875 0.015625 0  0.1875 0.015625 0  0.1953125 0.015625 0  0.203125 0.015625 0  0.2109375 0.015625 0  0.21875 0.015625 0  0.2265625 0.015625 0  0.234375 0.015625 0  0.2421875 0.015625 0  0.25 0.015625 0  0.2578125 0.015625 0  0.265625 0.015625 0  0.2734375 0.015625 0  0.28125 0.015625 0  0.2890625 0.015625 0  0.296875 0.015625 0  0.3046875 0.015625 0  0.3125 0.015625 0  0.3203125 0.015625 0  0.328125 0.015625 0  0.3359375 0.015625 0  0.34375 0.015625 0  0.3515625 0.015625 0  0.359375 0.015625 0  0.3671875 0.015625 0  0.375 0.015625 0  0.3828125 0.015625 0  0.390625 0.015625 0  0.3984375 0.015625 0  0.40625 0.015625 0  0.4140625 0.015625 0  0.421875 0.015625 0  0.4296875 0.015625 0  0.4375 0.015625 0  0.4453125 0.015625 0  0.453125 0.015625 0  0.4609375 0.015625 0  0.46875 0.015625 0  0.4765625 0.015625 0  0.484375 0.015625 0  0.4921875 0.015625 0  0.5 0.015625 0  0.5078125 0.015625 0  0.515625 0.015625 0  0.5234375 0.015625 0  0.53125 0.015625 0  0.5390625 0.015625 0  0.546875 0.015625 0  0.5546875 0.015625 0  0.5625 0.015625 0  0.5703125 0.015625 0  0.578125 0.015625 0  0.5859375 0.015625 0  0.59375 0.015625 0  0.6015625 0.015625 0  0.609375 0.015625 0  0.6171875 0.015625 0  0.625 0.015625 0  0.6328125 0.015625 0  0.640625 0.015625 0  0.6484375 0.015625 0  0.65625 0.015625 0  0.6640625 0.015625 0  0.671875 0.015625 0  0.6796875 0.015625 0  0.6875 0.015625 0  0.6953125 0.015625 0  0.703125 0.015625 0  0.7109375 0.015625 0  0.71875 0.015625 0  0.7265625 0.015625 0  0.734375 0.015625 0  0.7421875 0.015625 0  0.75 0.015625 0  0.7578125 0.015625 0  0.765625 0.015625 0  0.7734375 0.015625 0  0.78125 0.015625 0  0.7890625 0.015625 0  0.796875 0.015625 0  0.8046875 0.015625 0  0.8125 0.015625 0  0.8203125 0.015625 0  0.828125 0.015625 0  0.8359375 0.015625 0  0.84375 0.015625 0  0.8515625 0.015625 0  0.859375 0.015625 0  0.8671875 0.015625 0  0.875 0.015625 0  0.8828125 0.015625 0  0.890625 0.015625 0  0.8984375 0.015625 0  0.90625 0.015625 0  0.9140625 0.015625 0  0.921875 0.015625 0  0.9296875 0.015625 0  0.9375 0.015625 0  0.9453125 0.015625 0  0.953125 0.015625 0  0.9609375 0.015625 0  0.96875 0.015625 0  0.9765625 0.015625 0  0.984375 0.015625 0  0.9921875 0.015625 0  1 0.015625 0  0 0.0234375 0  0.0078125 0.0234375 0  0.015625 0.0234375 0  0.0234375 0.0234375 0  0.03125 0.0234375 0  0.0390625 0.0234375 0  0.046875 0.0234375 0  0.0546875 0.0234375 0  0.0625 0.0234375 0  0.0703125 0.0234375 0  0.078125 0.0234375 0  0.0859375 0.0234375 0  0.09375 0.0234375 0  0.1015625 0.0234375 0  0.109375 0.0234375 0  0.1171875 0.0234375 0  0.125 0.0234375 0  0.1328125 0.0234375 0  0.140625 0.0234375 0  0.1484375 0.0234375 0  0.15625 0.0234375 0  0.1640625 0.0234375 0  0.171875 0.0234375 0  0.1796875 0.0234375 0  0.1875 0.0234375 0  0.1953125 0.0234375 0  0.203125 0.0234375 0  0.2109375 0.0234375 0  0.21875 0.0234375 0  0.2265625 0.0234375 0  0.234375 0.0234375 0  0.2421875 0.0234375 0  0.25 0.0234375 0  0.2578125 0.0234375 0  0.265625 0.0234375 0  0.2734375 0.0234375 0  0.28125 0.0234375 0  0.2890625 0.0234375 0  0.296875 0.0234375 0  0.3046875 0.0234375 0  0.3125 0.0234375 0  0.3203125 0.0234375 0  0.328125 0.0234375 0  0.3359375 0.0234375 0  0.34375 0.0234375 0  0.3515625 0.0234375 0  0.359375 0.0234375 0  0.3671875 0.0234375 0  0.375 0.0234375 0  0.3828125 0.0234375 0  0.390625 0.0234375 0  0.3984375 0.0234375 0  0.40625 0.0234375 0  0.4140625 0.0234375 0  0.421875 0.0234375 0  0.4296875 0.0234375 0  0.4375 0.0234375 0  0.4453125 0.0234375 0  0.453125 0.0234375 0  0.4609375 0.0234375 0  0.46875 0.0234375 0  0.4765625 0.0234375 0  0.484375 0.0234375 0  0.4921875 0.0234375 0  0.5 0.0234375 0  0.5078125 0.0234375 0  0.515625 0.0234375 0  0.5234375 0.0234375 0  0.53125 0.0234375 0  0.5390625 0.0234375 0  0.546875 0.0234375 0  0.5546875 0.0234375 0  0.5625 0.0234375 0  0.5703125 0.0234375 0  0.578125 0.0234375 0  0.5859375 0.0234375 0  0.59375 0.0234375 0  0.6015625 0.0234375 0  0.609375 0.0234375 0  0.6171875 0.0234375 0  0.625 0.0234375 0  0.6328125 0.0234375 0  0.640625 0.0234375 0  0.6484375 0.0234375 0  0.65625 0.0234375 0  0.6640625 0.0234375 0  0.671875 0.0234375 0  0.6796875 0.0234375 0  0.6875 0.0234375 0  0.6953125 0.0234375 0  0.703125 0.0234375 0  0.7109375 0.0234375 0  0.71875 0.0234375 0  0.7265625 0.0234375 0  0.734375 0.0234375 0  0.7421875 0.0234375 0  0.75 0.0234375 0  0.7578125 0.0234375 0  0.765625 0.0234375 0  0.7734375 0.0234375 0  0.78125 0.0234375 0  0.7890625 0.0234375 0  0.796875 0.0234375 0  0.8046875 0.0234375 0  0.8125 0.0234375 0  0.8203125 0.0234375 0  0.828125 0.0234375 0  0.8359375 0.0234375 0  0.84375 0.0234375 0  0.8515625 0.0234375 0  0.859375 0.0234375 0  0.8671
[...]
<PointData  Scalars="u_sol"> 
<DataArray  type="Float64"  Name="u_sol"  format="ascii">1.4773716581383325e-06  -6.2700824969228826e-06  -1.7973077378946121e-05  -2.3989107015313447e-05  -2.4231526051184386e-05  -1.8846908384361447e-05  -8.6566882591005161e-06  5.2954228433522955e-06  2.1575184174019130e-05  3.8612686640819604e-05  5.4882029880948357e-05  6.9151983632668361e-05  8.0632466786306029e-05  8.9043265376923461e-05  9.4577731485719150e-05  9.7804760913659352e-05  9.9539468396495537e-05  1.0072068792762884e-04  1.0231291548616322e-04  1.0523866352434448e-04  1.1033398129659608e-04  1.1831553312604884e-04  1.2975086496262787e-04  1.4503287260969792e-04  1.6436886423682221e-04  1.8780277700416494e-04  2.1528683840923920e-04  2.4680055979508245e-04  2.8248408428306713e-04  3.2274440972015193e-04  3.6831803436823668e-04  4.2024938551992293e-04  4.7976483338380124e-04  5.4810751700803408e-04  6.2644841645442405e-04  7.1584202282415224e-04  8.1724702651037962e-04  9.3144062658020153e-04  1.0589611771521111e-03  1.1998714918780022e-03  1.3536391714173421e-03  1.5190752084602993e-03  1.6939967740909614e-03  1.8752582585797254e-03  2.0584757028731904e-03  2.2376267337385742e-03  2.4054819174436541e-03  2.5535697579250390e-03  2.6720335870438674e-03  2.7500545963433619e-03  2.7763034636635628e-03  2.7396698138500474e-03  2.6300657530699397e-03  2.4392674760712299e-03  2.1616481952144839e-03  1.7947413680305636e-03  1.3395749936872820e-03  8.0079163015220908e-04  1.8657032115422374e-04  -4.9156461633821625e-04  -1.2190501603077076e-03  -1.9785219948382864e-03  -2.7501929779064353e-03  -3.5116917344558568e-03  -4.2382021458812567e-03  -4.9106485207384082e-03  -5.5077586784556517e-03  -5.9970128668219765e-03  -6.3482681365015685e-03  -6.5362142222462078e-03  -6.5384531958885394e-03  -6.3380570788371809e-03  -5.9247438187293557e-03  -5.2968303152264367e-03  -4.4624264772432304e-03  -3.4405389737492058e-03  -2.2611881545783028e-03  -9.6482007713642823e-04  3.9896131591676180e-04  1.7754678698434175e-03  3.1027743578123709e-03  4.3288727318582009e-03  5.4045211635840281e-03  6.2824480521441297e-03  6.9365671461016076e-03  7.3535421143573624e-03  7.5344831295526445e-03  7.4944176061755982e-03  7.2590225248005064e-03  6.8618889408087564e-03  6.3393400999902025e-03  5.7311495663659104e-03  5.0728014012400525e-03  4.3881183220729099e-03  3.6988228497767416e-03  3.0264864855762169e-03  2.3901981737404548e-03  1.8038652592396172e-03  1.2781255005000687e-03  8.2256805147979382e-04  4.4316594955563099e-04  1.4199761877704411e-04  -8.3053795030435981e-05  -2.3845044703037764e-04  -3.3401021263904438e-04  -3.8153458326161809e-04  -3.9321225762416011e-04  -3.8026003336233443e-04  -3.5218295322203764e-04  -3.1634182559144003e-04  -2.7792647210925751e-04  -2.4033868738012752e-04  -2.0558857691756131e-04  -1.7471553425470990e-04  -1.4808197470563049e-04  -1.2561240776688118e-04  -1.0695102906952208e-04  -9.1557068715503452e-05  -7.8770443478578479e-05  -6.7863911045973143e-05  -5.8103711770079070e-05  -4.8798925086355530e-05  -3.9382748641606319e-05  -2.9463947746401817e-05  -1.8972962741558377e-05  -8.3445375160658776e-06  1.1260656900428926e-06  5.1889454681754465e-06  -2.5754451225952578e-07  3.9786126738445834e-06  -2.3552234182892134e-05  -2.6020690713215456e-05  5.8311746277537506e-05  2.5040810190694461e-04  5.5272145724871464e-04  9.5350478684473974e-04  1.4311884793265400e-03  1.9576972542159721e-03  2.5021619201263620e-03  3.0347280136994769e-03  3.5299342024188349e-03  3.9692210167379246e-03  4.3422578731703064e-03  4.6470737193733602e-03  4.8891690375541530e-03  5.0799289730718263e-03  5.2346760342656500e-03  5.3706501482510592e-03  5.5051032421046817e-03  5.6536018160760317e-03  5.8285758640887484e-03  6.0381515359008127e-03  6.2853471706036989e-03  6.5677605379561447e-03  6.8778694271374868e-03  7.2039711017539473e-03  7.5316047116791287e-03  7.8451000490090510e-03  8.1287448752419261e-03  8.3670731048012398e-03  8.5441239051316804e-03  8.6419305548602332e-03  8.6387444462841089e-03  8.5075184202403863e-03  8.2151075945547589e-03  7.7221493291992228e-03  6.9835640550151394e-03  5.9492063896334820e-03  4.5648643498667919e-03  2.7734506927693239e-03  5.1667365099892669e-04  -2.2622487270744832e-03  -5.6156210363342562e-03  -9.5875510705015366e-03  -1.4209944858319957e-02  -1.9499197558779040e-02  -2.5452831313059723e-02  -3.2046795073612966e-02  -3.9234101212023600e-02  -4.6944651634650864e-02  -5.5086648853291675e-02  -6.3549383322741487e-02  -7.2207127335238361e-02  -8.0923609119077186e-02  -8.9556572077641672e-02  -9.7961965750295893e-02  -1.0599748414667003e-01  -1.1352529931835306e-01  -1.2041401430548340e-01  -1.2653990333561196e-01  -1.3178770781275023e-01  -1.3605101061207953e-01  -1.3923290491184498e-01  -1.4124653743907989e-01  -1.4200950057964704e-01  -1.4145306492622300e-01  -1.3953027480866032e-01  -1.3620711989455500e-01  -1.3146557434245731e-01  -1.2530842170082637e-01  -1.1776154504435252e-01  -1.0887745029612449e-01  -9.8737799500763362e-02  -8.7455864338039993e-02  -7.5177615858708052e-02  -6.2081678469937118e-02  -4.8377299884327742e-02  -3.4300112592633998e-02  -2.0106698598908079e-02  -6.0624713079287006e-03  7.5584137634184248e-03  2.0494295791929081e-02  3.2509315925265111e-02  4.3391730192558257e-02  5.2971441610182864e-02  6.1124226217038863e-02  6.7774308979889689e-02  7.2894380137490361e-02  7.6501120605887291e-02  7.8650068160582190e-02  7.9423900738287409e-02  7.8927000270771180e-02  7.7282178548962396e-02  7.4616904469653078e-02  7.1056921002437087e-02  6.6726188747335449e-02  6.1754224773736890e-02  5.6279996758409230e-02  5.0452526748282198e-02  4.4434397977988330e-02  3.8398544090541060e-02  3.2519398719597040e-02  2.6960175890925146e-02  2.1858171185204282e-02  1.7312601661975489e-02  1.3378065489954724e-02  1.0065038595590608e-02  7.3466686615765399e-03  5.1691541102334877e-03  3.4630306098383436e-03  2.1532657529314526e-03  1.1668207494700273e-03  4.3755375611876594e-04  -9.1219094436931076e-05  -4.6576886037210042e-04  -7.2208713422950300e-04  -8.8675696699792275e-04  -9.7832696908688828e-04  -1.0090349492553159e-03  -9.8674048253653899e-04  -9.1697558898416254e-04  -8.0498453604702308e-04  -6.5780293885287866e-04  -4.8621646896410429e-04  -3.0701618642824824e-04  -1.4444751622797239e-04  -3.1282893122114008e-05  6.4620291738238047e-06  -6.9944290647926186e-07  1.8384770198883987e-06  7.9465619254255254e-05  2.9678843869398324e-04  6.8060801970344675e-04  1.2332102508366954e-03  1.9355991589329363e-03  2.7536002634595343e-03  3.6433669161429678e-03  4.5573081149852916e-03  5.4497159231662118e-03  6.2816054430270170e-03  7.0242074289445572e-03  7.6608456051522923e-03  8.1871793541569756e-03  8.6100373122686581e-03  8.9452107966572301e-03  9.2146227063592667e-03  9.4432429167167486e-03  9.6560325180072119e-03  9.8751042942816485e-03  1.0117225880216709e-02  1.0391787441904502e-02  1.0699391379121112e-02  1.1031246255728124e-02  1.1369508574034987e-02  1.1688558281551310e-02  1.1956912773947613e-02  1.2139165167136151e-02  1.2197239316319180e-02  1.2090465409623266e-02  1.1774237428031253e-02  1.1197601952784214e-02  1.0300719101229235e-02  9.0132992685195874e-03  7.2544530275761498e-03  4.9339886213192472e-03  1.9546033088683281e-03  -1.7847407825508691e-03  -6.3842741383226456e-03  -1.1937360906354121e-02  -1.8523145267138129e-02  -2.6198811511081502e-02  -3.4991277682545063e-02  -4.4889779559481882e-02  -5.5840223542333187e-02  -6.7742235431940537e-02  -8.0450456708930002e-02  -9.3780057176736542e-02  -1.0751591487623062e-01  -1.2142432795572865e-01  -1.3526539207345531e-01  -1.4880450433038331e-01  -1.6182175972652019e-01  -1.7411865577324961e-01  -1.8552199800219760e-01  -1.9588531654223326e-01  -2.0508830426435742e-01  -2.1303487893817444e-01  -2.1965042693736031e-01  -2.2487872178705523e-01  -2.2867884696582860e-01  -2.3102248885902507e-01  -2.3189149601222181e-01  -2.3127638297457917e-01  -2.2918031611676681e-01  -2.2561047299391840e-01  -2.2057379269030367e-01  -2.1408604169650083e-01  -2.0617121564867635e-01  -1.9686296213086166e-01  -1.8620731499200088e-01  -1.7426505708065840e-01  -1.6111474824078667e-01  -1.4685520294476109e-01  -1.3160781750000983e-01  -1.1551785253743020e-01  -9.8754671986242326e-02  -8.1510360642979951e-02  -6.3996496461940167e-02  -4.6440490991908105e-02  -2.9074050421501026e-02  -1.2132827005379519e-02  4.1532957834143555e-03  1.9573878292283409e-02  3.3938455082047479e-02  4.7084139119204851e-02  5.8878624368202896e-02  6.9221193199659567e-02  7.8042617987573976e-02  8.5301817449684084e-02  9.0984619148881174e-02  9.5096928303862252e-02  9.7656616681126601e-02  9.8693549819690946e-02  9.8250155329733524e-02  9.6383945477170482e-02  9.3162407356221194e-02  8.8668731969903172e-02  8.3018738960030813e-02  7.6370421600071681e-02  6.8932265278955324e-02  6.0964451764452129e-02  5.2766708973412242e-02  4.4653741956945256e-02  3.6921922366270572e-02  2.9816128768092882e-02  2.3506092690848378e-02  1.8077897928301487e-02  1.3540785158801074e-02  9.8444436342611172e-03  6.9002763099422016e-03  4.6012923993237389e-03  2.8376000382905700e-03  1.5068626300972212e-03  5.2019094690309404e-04  -1.9544027997588697e-04  -6.9716723429753705e-04  -1.0278009137335451e-03  -1.2183946088656725e-03  -1.2913745996753166e-03  -1.2638875869619209e-03  -1.1511438421292555e-03  -9.6955975420377478e-04  -7.3967803648162459e-04  -4.8837156374380178e-04  -2.5060849862431039e-04  -6.6482559085139111e-05  1.2841569258174732e-05  -7.3094350940107627e-06  3.5994563579463169e-05  2.1375566394370990e-04  5.7772082351600028e-04  1.1499041447839034e-03  1.9263791808242466e-03  2.8796172188292599e-03  3.9645550568968430e-03  5.1255150963796870e-03  6.3035592034300014e-03  7.4432962606710675e-03  8.4984037070973649e-03  9.4353549978740368e-03  1.0235162874771612e-02  1.0893260539586688e-02  1.1417855306534275e-02  1.1827181199726151e-02  1.2146075408850369e-02  1.2402244566299347e-02  1.2622498331834252e-02  1.2829152932198792e-02  1.3036781521167164e-02  1.3249506988031731e-02  1.3459082589454175e-02  1.3644026819722032e-02  1.3769968513457491e-02  1.3791081622199242e-02  1.3652142131674570e-02  1.3290464283223757e-02  1.2636761559060497e-02  1.1614237218622722e-02  1.0136298780569309e-02  8.1040598958924803e-03  5.4049323543048202e-03  1.9131575683563526e-03  -2.5070188083763149e-03  -7.9954704555678900e-03  -1.4687669803186530e-02  -2.2704188034367138e-02  -3.2138289799235727e-02  -4.3042298178959902e-02  -5.5414243590468232e-02  -6.9186687942936392e-02  -8.4220956709603390e-02  -1.0030874653014772e-01  -1.1718225286451019e-01  -1.3453187269545064e-01  -1.5202839244280889e-01  -1.6934603461119099e-01  -1.8618277458113877e-01  -2.0227541440910202e-01  -2.1740838763509099e-01  -2.3141646351748280e-01  -2.4418247218431827e-01  -2.5563155166129559e-01  -2.6572347136624802e-01  -2.7444433429225412e-01  -2.8179862030586478e-01  -2.8780216135419706e-01  -2.9247634264417716e-01  -2.9584359150685641e-01  -2.9792410524776253e-01  -2.9873361077062516e-01  -2.9828218434651899e-01  -2.9657337515898163e-01  -2.9359928723070311e-01  -2.8934830157092722e-01  -2.8381133564947664e-01  -2.7697734534102436e-01  -2.6883704474263520e-01  -2.5938610547907437e-01  -2.4862855770679124e-01  -2.3658103942136757e-01  -2.2327703312757269e-01  -2.0877145992556909e-01  -1.9314477182930614e-01  -1.7650640090338993e-01  -1.5899671858341449e-01  -1.4078706906325741e-01  -1.2207727347735592e-01  -1.0308987047854762e-01  -8.4064437308794829e-02  -6.5243355374823897e-02  -4.6862534863944823e-02  -2.9142494868576552e-02  -1.2275271311460287e-02  3.5801598409164197e-03  1.8301357535984709e-02  3.1801496462229989e-02  4.4024799119847996e-02  5.4940492708552002e-02  6.4533069704910545e-02  7.2796367499122105e-02  7.9727102211506792e-02  8.5315049774319682e-02  8.9535524412060655e-02  9.2343072175050112e-02  9.3685745531269279e-02  9.3515132611214483e-02  9.1790656552960370e-02  8.8504476679476488e-02  8.3708991440263489e-02  7.7540861222317015e-02  7.0237085472431016e-02  6.2131111407379577e-02  5.3624809002971063e-02  4.5139542620558450e-02  3.7059206568317758e-02  2.9682502359760651e-02  2.3197471372101378e-02  1.7681608061805264e-02  1.3121419532918090e-02  9.4410617123887840e-03  6.5308469437668354e-03  4.2700953207214848e-03  2.5427375740236361e-03  1.2463139996167062e-03  2.9582024506191002e-04  -3.7604847612863687e-04  -8.2093856373565072e-04  -1.0781724421400820e-03  -1.1786510692451018e-03  -1.1488247647613577e-03  -1.0143707780776094e-03  -8.0346785949416224e-04  -5.4916495384398718e-04  -2.9197065367176321e-04  -7.9753286383728737e-05  1.5534205050693914e-05  -1.3819618734712458e-05  6.8879811311937949e-05  3.4948888307551875e-04  8.6393740971437067e-04  1.6232440914307061e-03  2.6121981232875664e-03  3.7910230160270943e-03  5.1017545864642938e-03  6.4764769385649195e-03  7.8460866188950172e-03  9.1481226580499338e-03  1.0332648156062023e-02  1.1365655003979441e-02  1.2230005788611810e-02  1.2924295918335013e-02  1.3460191126673621e-02  1.3858807246075378e-02  1.4146587756478674e-02  1.4350986333432734e-02  1.4496149665082631e-02  1.4598754663421847e-02  1.4664177034611909e-02  1.4683265954832780e-02  1.4630089414618849e-02  1.4461000413606061e-02  1.4115195558798959e-02  1.3516538637557576e-02  1.2575799834950684e-02  1.1192049504109302e-02  9.2524678965175931e-03  6.6307753025751821e-03  3.1851769266883112e-03  -1.2422404294030339e-03  -6.8223131589937513e-03  -1.3730527858397925e-02  -2.2134399323719075e-02  -3.2177471939223011e-02  -4.3960727765742176e-02  -5.7522456151466006e-02  -7.2819413645238321e-02  -8.9713525887982329e-02  -1.0796868857484236e-01  -1.2726117335789730e-01  -1.4720341407296686e-01  -1.6737749192908494e-01  -1.8737177727679871e-01  -2.0681379431107094e-01  -2.2539411214266905e-01  -2.4287878699494847e-01  -2.5911069430371325e-01  -2.7400209201941539e-01  -2.8752168240370130e-01  -2.9967943242286499e-01  -3.1051174258545200e-01  -3.2006865627402054e-01  -3.2840390978823319e-01  -3.3556794199278123e-01  -3.4160353660659498e-01  -3.4654356052464574e-01  -3.5041021219307406e-01  -3.5321525871642201e-01  -3.5496083288751978e-01  -3.5564053582031363e-01  -3.5524053443967757e-01  -3.5374083255122896e-01  -3.5112025462503182e-01  -3.4735334104938392e-01  -3.4240768354451290e-01  -3.3624910160301219e-01  -3.2884249560883994e-01  -3.2015402030058882e-01  -3.1015413102911166e-01  -2.9882123036441277e-01  -2.8614639830368777e-01  -2.7213875601884052e-01  -2.5683154888605969e-01  -2.4028827923688753e-01  -2.2260835912723823e-01  -2.0393127067152461e-01  -1.8443819827965588e-01  -1.6435038497735238e-01  -1.4392191022008610e-01  -1.2343078425582775e-01  -1.0316326766601866e-01  -8.3396291959229193e-02  -6.4381615648545568e-02  -4.6329570030342028e-02  -2.9398960808528787e-02  -1.3692310852142833e-02  7.4226507528571688e-04  1.3902959719304915e-02  2.5823054025362741e-02  3.6554604064997477e-02  4.6153163197275096e-02  5.4664466388839657e-02  6.2113366274830044e-02  6.8498035898595558e-02  7.3768577151450743e-02  7.7824761179598578e-02  8.0536759472388489e-02  8.1756064761862313e-02  8.1342557425150799e-02  7.9207477216313077e-02  7.5357529534562831e-02  6.9932301555280962e-02  6.3217857079185938e-02  5.5625265732785319e-02  4.7634563638451720e-02  3.9719497544324057e-02  3.2277559217942217e-02  2.5586192863916900e-02  1.9792843245904853e-02  1.4932525652066484e-02  1.0959573219491160e-02  7.7811529706985922e-03  5.2849499423728904e-03  3.3583502319622198e-03  1.8996194600784824e-03  8.2283336042987900e-04  5.8474548611614439e-05  -4.4863459646600154e-04  -7.4275747064608268e-04  -8.6113873648273971e-04  -8.3777487391928568e-04  -7.0686850474803312e-04  -5.0567270463826384e-04  -2.7825820497009036e-04  -7.7835942848799065e-05  1.5191261987109825e-05  -1.9891179071801966e-05  9.9124071060625884e-05  4.8139579085793250e-04  1.1498430414080651e-03  2.1011034367497666e-03  3.3038328150818380e-03  4.7008788231367666e-03  6.2170063230984340e-03  7.7691277292168777e-03  9.2769473959652057e-03  1.0671936811809876e-02  1.1903297110739073e-02  1.2940470543801208e-02  1.3772512745700188e-02  1.4405135925283249e-02  1.4856358465234264e-02  1.5151520128029438e-02  1.5318142836241291e-02  1.5380860552341164e-02  1.5356492052129413e-02  1.5249311816890251e-02  1.5046721436424864e-02  1.4715711602866541e-02  1.4200653092987162e-02  1.3422900840794611e-02  1.2282218019003237e-02  1.0659266359402873e-02  8.4179868486795699e-03  5.4067507217651391e-03  1.4576732308258142e-03  -3.6145316976753925e-03  -1.0010552007793090e-02  -1.7938130740917949e-02  -2.7596364971782809e-02  -3.9153607957292252e-02  -5.2721094429907099e-02  -6.8325553975946834e-02  -8.5885019914035660e-02  -1.0519377434344475e-01  -1.2592317771535677e-01  -1.4764260245614774e-01  -1.6985899430066115e-01  -1.9206727426621092e-01  -2.1380061173505113e-01  -2.3467016150766146e-01  -2.5438782863151682e-01  -2.7277081308813617e-01  -2.8973106927494446e-01  -3.0525526878390608e-01  -3.1938126128841743e-01  -3.3217587520589165e-01  -3.4371704446449736e-01  -3.5408139562962732e-01  -3.6333703481598273e-01  -3.7154046866664836e-01  -3.7873632345849273e-01  -3.8495861679491156e-01  -3.9023261563771838e-01  -3.9457663862534981e-01  -3.9800345060567471e-01  -4.0052110877580438e-01  -4.0213326731978133e-01  -4.0283899353824232e-01  -4.0263225879524606e-01  -4.0150120988657684e-01  -3.9942508479371275e-01  -3.9637557943308133e-01  -3.9231868850623486e-01  -3.8721261242635502e-01  -3.8100842168978727e-01  -3.7365088629601040e-01  -3.6508001819229052e-01  -3.5523378033049258e-01  -3.4405202173453164e-01  -3.3148206960793808e-01  -3.1748593003645059e-01  -3.0204911074268365e-01  -2.8519053338484424e-01  -2.6697269432582188e-01  -2.4751072744627789e-01  -2.2697841651169995e-01  -2.0561010785711203e-01  -1.8369491824028425e-01  -1.6156494072737504e-01  -1.3957612153526758e-01  -1.1808317553691533e-01  -9.7413562565968004e-02  -7.7842480541960371e-02  -5.9574131842310370e-02  -4.2731486579920951e-02  -2.7356090206603550e-02  -1.3417697972816897e-02  -8.2999049964642597e-04  1.0528113492447434e-02  2.0789639978514816e-02  3.0076664591392948e-02  3.8477366819581076e-02  4.6041427750475220e-02  5.2763290181476671e-02  5.8559688055889736e-02  6.3280703217312301e-02  6.6725805808871358e-02  6.8670499765298015e-02  6.8916489525323379e-02  6.7351090652132461e-02  6.4003833424794890e-02  5.9078896227804795e-02  5.2945309027585465e-02  4.6081812797097638e-02  3.8992710775982382e-02  3.2124148194453757e-02  2.5807374309801318e-02  2.0240015889514528e-02  1.5499484777122024e-02  1.1573874744927862e-02  8.3962775175068002e-03  5.8738141490703756e-03  3.9081106396933289e-03  2.4074235340742251e-03  1.2921891776927091e-03  4.9608208363391870e-04  -3.5612074380646991e-05  -3.4892046897891870e-04  -4.8449621305982022e-04  -4.8096413530866549e-04  -3.7808011954960176e-04  -2.2115880424691638e-04  -6.4467147577989574e-05  1.2578160934623008e-05  -2.5896269441455388e-05  1.2889795678139201e-04  6.1607089706496899e-04  1.4478329065597147e-03  2.6037240379375303e-03  4.0310567784109146e-03  5.6490604678118162e-03  7.3595612978327868e-03  9.0604212953028611e-03  1.0658771612822976e-02  1.2081188698433137e-02  1.3279248252226645e-02  1.4230244011709131e-02  1.4934016636031644e-02  1.5407326397402518e-02  1.5677131193020340e-02  1.5773735126871514e-02  1.5724276432634101e-02  1.5546637394721535e-02  1.5243700729604725e-02  1.4798004945901597e-02  1.4167091665397785e-02  1.3280175050137432e-02  1.2036876225041179e-02  1.0308378167141856e-02  7.9406774279634079e-03  4.7587092179971332e-03  5.6938474432370590e-04  -4.8372192788300687e-03  -1.1686239905723775e-02  -2.0211844310570940e-02  -3.0642377696588365e-02  -4.3174763330843649e-02  -5.7940429410360837e-02  -7.4968782539800521e-02  -9.4155656845070393e-02  -1.1524499435670857e-01  -1.3783244252384116e-01  -1.6139605158026551e-01  -1.8535112406523735e-01  -2