<?xml version="1.0"?>
<VTKFile type="UnstructuredGrid"  version="0.1"  >
<UnstructuredGrid>
<Piece  NumberOfPoints="16641" NumberOfCells="16384">
<Points>
<DataArray  type="Float64"  NumberOfComponents="3"  format="ascii">0 0 0  0.0078125 0 0  0.015625 0 0  0.0234375 0 0  0.03125 0 0  0.0390625 0 0  0.046875 0 0  0.0546875 0 0  0.0625 0 0  0.0703125 0 0  0.078125 0 0  0.0859375 0 0  0.09375 0 0  0.1015625 0 0  0.109375 0 0  0.1171875 0 0  0.125 0 0  0.1328125 0 0  0.140625 0 0  0.1484375 0 0  0.15625 0 0  0.1640625 0 0  0.171875 0 0  0.1796875 0 0  0.1875 0 0  0.1953125 0 0  0.203125 0 0  0.2109375 0 0  0.21875 0 0  0.2265625 0 0  0.234375 0 0  0.2421875 0 0  0.25 0 0  0.2578125 0 0  0.265625 0 0  0.2734375 0 0  0.28125 0 0  0.2890625 0 0  0.296875 0 0  0.3046875 0 0  0.3125 0 0  0.3203125 0 0  0.328125 0 0  0.3359375 0 0  0.34375 0 0  0.3515625 0 0  0.359375 0 0  0.3671875 0 0  0.375 0 0  0.3828125 0 0  0.390625 0 0  0.3984375 0 0  0.40625 0 0  0.4140625 0 0  0.421875 0 0  0.4296875 0 0  0.4375 0 0  0.4453125 0 0  0.453125 0 0  0.4609375 0 0  0.46875 0 0  0.4765625 0 0  0.484375 0 0  0.4921875 0 0  0.5 0 0  0.5078125 0 0  0.515625 0 0  0.5234375 0 0  0.53125 0 0  0.5390625 0 0  0.546875 0 0  0.5546875 0 0  0.5625 0 0  0.5703125 0 0  0.578125 0 0  0.5859375 0 0  0.59375 0 0  0.6015625 0 0  0.609375 0 0  0.6171875 0 0  0.625 0 0  0.6328125 0 0  0.640625 0 0  0.6484375 0 0  0.65625 0 0  0.6640625 0 0  0.671875 0 0  0.6796875 0 0  0.6875 0 0  0.6953125 0 0  0.703125 0 0  0.7109375 0 0  0.71875 0 0  0.7265625 0 0  0.734375 0 0  0.7421875 0 0  0.75 0 0  0.7578125 0 0  0.765625 0 0  0.7734375 0 0  0.78125 0 0  0.7890625 0 0  0.796875 0 0  0.8046875 0 0  0.8125 0 0  0.8203125 0 0  0.828125 0 0  0.8359375 0 0  0.84375 0 0  0.8515625 0 0  0.859375 0 0  0.8671875 0 0  0.875 0 0  0.8828125 0 0  0.890625 0 0  0.8984375 0 0  0.90625 0 0  0.9140625 0 0  0.921875 0 0  0.9296875 0 0  0.9375 0 0  0.9453125 0 0  0.953125 0 0  0.9609375 0 0  0.96875 0 0  0.9765625 0 0  0.984375 0 0  0.9921875 0 0  1 0 0  0 0.0078125 0  0.0078125 0.0078125 0  0.015625 0.0078125 0  0.0234375 0.0078125 0  0.03125 0.0078125 0  0.0390625 0.0078125 0  0.046875 0.0078125 0  0.0546875 0.0078125 0  0.0625 0.0078125 0  0.0703125 0.0078125 0  0.078125 0.0078125 0  0.0859375 0.0078125 0  0.09375 0.0078125 0  0.1015625 0.0078125 0  0.109375 0.0078125 0  0.1171875 0.0078125 0  0.125 0.0078125 0  0.1328125 0.0078125 0  0.140625 0.0078125 0  0.1484375 0.0078125 0  0.15625 0.0078125 0  0.1640625 0.0078125 0  0.171875 0.0078125 0  0.1796875 0.0078125 0  0.1875 0.0078125 0  0.1953125 0.0078125 0  0.203125 0.0078125 0  0.2109375 0.0078125 0  0.21875 0.0078125 0  0.2265625 0.0078125 0  0.234375 0.0078125 0  0.2421875 0.0078125 0  0.25 0.0078125 0  0.2578125 0.0078125 0  0.265625 0.0078125 0  0.2734375 0.0078125 0  0.28125 0.0078125 0  0.2890625 0.0078125 0  0.296875 0.0078125 0  0.3046875 0.0078125 0  0.3125 0.0078125 0  0.3203125 0.0078125 0  0.328125 0.0078125 0  0.3359375 0.0078125 0  0.34375 0.0078125 0  0.3515625 0.0078125 0  0.359375 0.0078125 0  0.3671875 0.0078125 0  0.375 0.0078125 0  0.3828125 0.0078125 0  0.390625 0.0078125 0  0.3984375 0.0078125 0  0.40625 0.0078125 0  0.4140625 0.0078125 0  0.421875 0.0078125 0  0.4296875 0.0078125 0  0.4375 0.0078125 0  0.4453125 0.0078125 0  0.453125 0.0078125 0  0.4609375 0.0078125 0  0.46875 0.0078125 0  0.4765625 0.0078125 0  0.484375 0.0078125 0  0.4921875 0.0078125 0  0.5 0.0078125 0  0.5078125 0.0078125 0  0.515625 0.0078125 0  0.5234375 0.0078125 0  0.53125 0.0078125 0  0.5390625 0.0078125 0  0.546875 0.0078125 0  0.5546875 0.0078125 0  0.5625 0.0078125 0  0.5703125 0.0078125 0  0.578125 0.0078125 0  0.5859375 0.0078125 0  0.59375 0.0078125 0  0.6015625 0.0078125 0  0.609375 0.0078125 0  0.6171875 0.0078125 0  0.625 0.0078125 0  0.6328125 0.0078125 0  0.640625 0.0078125 0  0.6484375 0.0078125 0  0.65625 0.0078125 0  0.6640625 0.0078125 0  0.671875 0.0078125 0  0.6796875 0.0078125 0  0.6875 0.0078125 0  0.6953125 0.0078125 0  0.703125 0.0078125 0  0.7109375 0.0078125 0  0.71875 0.0078125 0  0.7265625 0.0078125 0  0.734375 0.0078125 0  0.7421875 0.0078125 0  0.75 0.0078125 0  0.7578125 0.0078125 0  0.765625 0.0078125 0  0.7734375 0.0078125 0  0.78125 0.0078125 0  0.7890625 0.0078125 0  0.796875 0.0078125 0  0.8046875 0.0078125 0  0.8125 0.0078125 0  0.8203125 0.0078125 0  0.828125 0.0078125 0  0.8359375 0.0078125 0  0.84375 0.0078125 0  0.8515625 0.0078125 0  0.859375 0.0078125 0  0.8671875 0.0078125 0  0.875 0.0078125 0  0.8828125 0.0078125 0  0.890625 0.0078125 0  0.8984375 0.0078125 0  0.90625 0.0078125 0  0.9140625 0.0078125 0  0.921875 0.0078125 0  0.9296875 0.0078125 0  0.9375 0.0078125 0  0.9453125 0.0078125 0  0.953125 0.0078125 0  0.9609375 0.0078125 0  0.96875 0.0078125 0  0.9765625 0.0078125 0  0.984375 0.0078125 0  0.9921875 0.0078125 0  1 0.0078125 0  0 0.015625 0  0.0078125 0.015625 0  0.015625 0.015625 0  0.0234375 0.015625 0  0.03125 0.015625 0  0.0390625 0.015625 0  0.046875 0.015625 0  0.0546875 0.015625 0  0.0625 0.015625 0  0.0703125 0.015625 0  0.078125 0.015625 0  0.0859375 0.015625 0  0.09375 0.015625 0  0.1015625 0.015625 0  0.109375 0.015625 0  0.1171875 0.015625 0  0.125 0.015625 0  0.1328125 0.015625 0  0.140625 0.015625 0  0.1484375 0.015625 0  0.15625 0.015625 0  0.1640625 0.015625 0  0.171875 0.015625 0  0.1796875 0.015625 0  0.1875 0.015625 0  0.1953125 0.015625 0  0.203125 0.015625 0  0.2109375 0.015625 0  0.21875 0.015625 0  0.2265625 0.015625 0  0.234375 0.015625 0  0.2421875 0.015625 0  0.25 0.015625 0  0.2578125 0.015625 0  0.265625 0.015625 0  0.2734375 0.015625 0  0.28125 0.015625 0  0.2890625 0.015625 0  0.296875 0.015625 0  0.3046875 0.015625 0  0.3125 0.015625 0  0.3203125 0.015625 0  0.328125 0.015625 0  0.3359375 0.015625 0  0.34375 0.015625 0  0.3515625 0.015625 0  0.359375 0.015625 0  0.3671875 0.015625 0  0.375 0.015625 0  0.3828125 0.015625 0  0.390625 0.015625 0  0.3984375 0.015625 0  0.40625 0.015625 0  0.4140625 0.015625 0  0.421875 0.015625 0  0.4296875 0.015625 0  0.4375 0.015625 0  0.4453125 0.015625 0  0.453125 0.015625 0  0.4609375 0.015625 0  0.46875 0.015625 0  0.4765625 0.015625 0  0.484375 0.015625 0  0.4921875 0.015625 0  0.5 0.015625 0  0.5078125 0.015625 0  0.515625 0.015625 0  0.5234375 0.015625 0  0.53125 0.015625 0  0.5390625 0.015625 0  0.546875 0.015625 0  0.5546875 0.015625 0  0.5625 0.015625 0  0.5703125 0.015625 0  0.578125 0.015625 0  0.5859375 0.015625 0  0.59375 0.015625 0  0.6015625 0.015625 0  0.609375 0.015625 0  0.6171875 0.015625 0  0.625 0.015625 0  0.6328125 0.015625 0  0.640625 0.015625 0  0.6484375 0.015625 0  0.65625 0.015625 0  0.6640625 0.015625 0  0.671875 0.015625 0  0.6796875 0.015625 0  0.6875 0.015625 0  0.6953125 0.015625 0  0.703125 0.015625 0  0.7109375 0.015625 0  0.71875 0.015625 0  0.7265625 0.015625 0  0.734375 0.015625 0  0.7421875 0.015625 0  0.75 0.015625 0  0.7578125 0.015625 0  0.765625 0.015625 0  0.7734375 0.015625 0  0.78125 0.015625 0  0.7890625 0.015625 0  0.796875 0.015625 0  0.8046875 0.015625 0  0.8125 0.015625 0  0.8203125 0.015625 0  0.828125 0.015625 0  0.8359375 0.015625 0  0.84375 0.015625 0  0.8515625 0.015625 0  0.859375 0.015625 0  0.8671875 0.015625 0  0.875 0.015625 0  0.8828125 0.015625 0  0.890625 0.015625 0  0.8984375 0.015625 0  0.90625 0.015625 0  0.9140625 0.015625 0  0.921875 0.015625 0  0.9296875 0.015625 0  0.9375 0.015625 0  0.9453125 0.015625 0  0.953125 0.015625 0  0.9609375 0.015625 0  0.96875 0.015625 0  0.9765625 0.015625 0  0.984375 0.015625 0  0.9921875 0.015625 0  1 0.015625 0  0 0.0234375 0  0.0078125 0.0234375 0  0.015625 0.0234375 0  0.0234375 0.0234375 0  0.03125 0.0234375 0  0.0390625 0.0234375 0  0.046875 0.0234375 0  0.0546875 0.0234375 0  0.0625 0.0234375 0  0.0703125 0.0234375 0  0.078125 0.0234375 0  0.0859375 0.0234375 0  0.09375 0.0234375 0  0.1015625 0.0234375 0  0.109375 0.0234375 0  0.1171875 0.0234375 0  0.125 0.0234375 0  0.1328125 0.0234375 0  0.140625 0.0234375 0  0.1484375 0.0234375 0  0.15625 0.0234375 0  0.1640625 0.0234375 0  0.171875 0.0234375 0  0.1796875 0.0234375 0  0.1875 0.0234375 0  0.1953125 0.0234375 0  0.203125 0.0234375 0  0.2109375 0.0234375 0  0.21875 0.0234375 0  0.2265625 0.0234375 0  0.234375 0.0234375 0  0.2421875 0.0234375 0  0.25 0.0234375 0  0.2578125 0.0234375 0  0.265625 0.0234375 0  0.2734375 0.0234375 0  0.28125 0.0234375 0  0.2890625 0.0234375 0  0.296875 0.0234375 0  0.3046875 0.0234375 0  0.3125 0.0234375 0  0.3203125 0.0234375 0  0.328125 0.0234375 0  0.3359375 0.0234375 0  0.34375 0.0234375 0  0.3515625 0.0234375 0  0.359375 0.0234375 0  0.3671875 0.0234375 0  0.375 0.0234375 0  0.3828125 0.0234375 0  0.390625 0.0234375 0  0.3984375 0.0234375 0  0.40625 0.0234375 0  0.4140625 0.0234375 0  0.421875 0.0234375 0  0.4296875 0.0234375 0  0.4375 0.0234375 0  0.4453125 0.0234375 0  0.453125 0.0234375 0  0.4609375 0.0234375 0  0.46875 0.0234375 0  0.4765625 0.0234375 0  0.484375 0.0234375 0  0.4921875 0.0234375 0  0.5 0.0234375 0  0.5078125 0.0234375 0  0.515625 0.0234375 0  0.5234375 0.0234375 0  0.53125 0.0234375 0  0.5390625 0.0234375 0  0.546875 0.0234375 0  0.5546875 0.0234375 0  0.5625 0.0234375 0  0.5703125 0.0234375 0  0.578125 0.0234375 0  0.5859375 0.0234375 0  0.59375 0.0234375 0  0.6015625 0.0234375 0  0.609375 0.0234375 0  0.6171875 0.0234375 0  0.625 0.0234375 0  0.6328125 0.0234375 0  0.640625 0.0234375 0  0.6484375 0.0234375 0  0.65625 0.0234375 0  0.6640625 0.0234375 0  0.671875 0.0234375 0  0.6796875 0.0234375 0  0.6875 0.0234375 0  0.6953125 0.0234375 0  0.703125 0.0234375 0  0.7109375 0.0234375 0  0.71875 0.0234375 0  0.7265625 0.0234375 0  0.734375 0.0234375 0  0.7421875 0.0234375 0  0.75 0.0234375 0  0.7578125 0.0234375 0  0.765625 0.0234375 0  0.7734375 0.0234375 0  0.78125 0.0234375 0  0.7890625 0.0234375 0  0.796875 0.0234375 0  0.8046875 0.0234375 0  0.8125 0.0234375 0  0.8203125 0.0234375 0  0.828125 0.0234375 0  0.8359375 0.0234375 0  0.84375 0.0234375 0  0.8515625 0.0234375 0  0.859375 0.0234375 0  0.8671
[...]
<PointData  Scalars="v_sol"> 
<DataArray  type="Float64"  Name="v_sol"  format="ascii">-1.4623772915560435e-06  -3.8791993648383084e-06  1.7628692562953015e-06  1.0928328563397319e-05  2.1095147368769007e-05  3.0754986172112068e-05  3.8858646074608993e-05  4.4662767938404985e-05  4.7733171967877044e-05  4.7987619740871760e-05  4.5681827612037989e-05  4.1353092613615651e-05  3.5718194425132785e-05  2.9558372422920157e-05  2.3611766054766755e-05  1.8493543871816595e-05  1.4648796407441826e-05  1.2336986799948191e-05  1.1638530651539734e-05  1.2473167856757977e-05  1.4621994965784073e-05  1.7751128260563150e-05  2.1438778682020184e-05  2.5212714737680609e-05  2.8601130508460314e-05  3.1191573283561769e-05  3.2685221983713952e-05  3.2931619446342257e-05  3.1923778330976688e-05  2.9732129578160474e-05  2.6402047118365744e-05  2.1874032719120335e-05  1.5936544952156535e-05  8.2186421959696353e-06  -1.7785028978683831e-06  -1.4603460319873387e-05  -3.0803039473395652e-05  -5.0859558538511776e-05  -7.5235256086700138e-05  -1.0431409287110706e-04  -1.3845859644054140e-04  -1.7786786306298255e-04  -2.2252425776753839e-04  -2.7216663858503111e-04  -3.2621586388979356e-04  -3.8384012291835858e-04  -4.4392583586023201e-04  -5.0506579083206505e-04  -5.6556913343781324e-04  -6.2349013394252199e-04  -6.7670768503235682e-04  -7.2305819075455847e-04  -7.6048674694818147e-04  -7.8718743212562051e-04  -8.0170351769745356e-04  -8.0297922783348775e-04  -7.9036095503446085e-04  -7.6356492047666711e-04  -7.2261621247014926e-04  -6.6779120586387102e-04  -5.9954551520869455e-04  -5.1849556213784615e-04  -4.2532455194723649e-04  -3.2102861685560539e-04  -2.0601640429229943e-04  -8.0678335098908802e-05  5.1868558589015658e-05  1.9053019332328447e-04  3.3354146482016139e-04  4.7860576403626492e-04  6.2324207546508718e-04  7.6455056041120953e-04  8.9934530942735100e-04  1.0241730823118719e-03  1.1353997298743734e-03  1.2294242429139516e-03  1.3027005647952064e-03  1.3522541024268732e-03  1.3753560843678017e-03  1.3707926407389446e-03  1.3372706582179272e-03  1.2755853467694685e-03  1.1877742295152629e-03  1.0767176590214065e-03  9.4627822073565355e-04  8.0151898066103424e-04  6.4779445653691985e-04  4.9062094313314210e-04  3.3518882942151350e-04  1.8602410422125510e-04  4.6742309034523951e-05  -8.0314870378064683e-05  -1.9345968881325740e-04  -2.9141814287280592e-04  -3.7453080644200983e-04  -4.4382954488136650e-04  -4.9985697770614707e-04  -5.4148428859345464e-04  -5.6832481599754063e-04  -5.7994478313912526e-04  -5.7568641966172383e-04  -5.5583823433588329e-04  -5.2172604964549445e-04  -4.7588944490748429e-04  -4.2186440707914067e-04  -3.6365237225045090e-04  -3.0513715429037987e-04  -2.4956894994111956e-04  -1.9926787621196061e-04  -1.5556292623777060e-04  -1.1890407763919096e-04  -8.9074427909626049e-05  -6.5421222626185142e-05  -4.7066242043033314e-05  -3.3056205387190216e-05  -2.2448077383130109e-05  -1.4369185260629946e-05  -8.0594128821608170e-06  -2.9013678808321229e-06  1.5577701249006912e-06  5.5948662322995302e-06  9.3020426631144929e-06  1.2591872415376555e-05  1.5183959929052669e-05  1.6614833160068969e-05  1.6179213905865492e-05  1.3034132560850417e-05  6.4816887654922599e-06  -2.5611195574006458e-07  6.1895825293805368e-06  2.3458302614570092e-05  -6.5616588746105235e-06  -5.3924231724465632e-05  -1.0596969502466173e-04  -1.5522826617553258e-04  -1.9651539988389222e-04  -2.2602624436911313e-04  -2.4156058718068131e-04  -2.4269213037425672e-04  -2.3075432864470410e-04  -2.0852143462900060e-04  -1.7968786483445556e-04  -1.4826209268529338e-04  -1.1801488385263320e-04  -9.2069663873375031e-05  -7.2670827812431376e-05  -6.1113133584102068e-05  -5.7783807502315799e-05  -6.2260885060075552e-05  -7.3426674918451853e-05  -8.9584165088402301e-05  -1.0859120679389133e-04  -1.2804582791682242e-04  -1.4554286392035249e-04  -1.5898206880547285e-04  -1.6685972563883298e-04  -1.6844493040033196e-04  -1.6373690785047396e-04  -1.5314464709086307e-04  -1.3698615683292132e-04  -1.1502088786757550e-04  -8.6165010223891381e-05  -4.8492794214964149e-05  5.1584441335315574e-07  6.3599970277284664e-05  1.4344382789690277e-04  2.4251574906009900e-04  3.6311095682796136e-04  5.0726988916777345e-04  6.7665218264195194e-04  8.7221460980248049e-04  1.0938732733154722e-03  1.3402392537868973e-03  1.6085813563070288e-03  1.8947142158148732e-03  2.1928004964084711e-03  2.4957829724115530e-03  2.7953431904572854e-03  3.0821722929127537e-03  3.3463706333927232e-03  3.5780062223907880e-03  3.7677053553988303e-03  3.9071801366316380e-03  3.9896021325725459e-03  4.0097912341509508e-03  3.9642243624998779e-03  3.8509034473436202e-03  3.6691326498604852e-03  3.4192628806690170e-03  3.1024478532043552e-03  2.7204383300983292e-03  2.2754766067314730e-03  1.7700608821450633e-03  1.2075995983553947e-03  5.9402123902027365e-04  -6.6338318940387475e-05  -7.6937174177582894e-04  -1.5047915136524352e-03  -2.2616264318890888e-03  -3.0267117414559614e-03  -3.7842870480087670e-03  -4.5161652400503138e-03  -5.2019481927776459e-03  -5.8196927288126097e-03  -6.3468167449519681e-03  -6.7614243730531737e-03  -7.0437536280859737e-03  -7.1779263745662914e-03  -7.1537253934497802e-03  -6.9658334282117155e-03  -6.6231390613082190e-03  -6.1330450137635911e-03  -5.5168395685535306e-03  -4.8013969012984199e-03  -4.0163269366244089e-03  -3.1936485476628906e-03  -2.3645046892875232e-03  -1.5568447356832120e-03  -7.9362085021421694e-04  -9.1738051236944803e-05  5.3720751401820305e-04  1.0908479785551100e-03  1.5685899494521794e-03  1.9708331275577183e-03  2.3012264395806392e-03  2.5629410619147463e-03  2.7548405795169146e-03  2.8745107423227357e-03  2.9194819592910002e-03  2.8876687593624184e-03  2.7804580899093581e-03  2.6044437487162298e-03  2.3719441625951079e-03  2.1000565311281986e-03  1.8082658871242140e-03  1.5155845171617149e-03  1.2380385745322270e-03  9.8714920689980641e-04  7.6943302305904938e-04  5.8705426988298862e-04  4.3885567913981734e-04  3.2154164565770016e-04  2.3069160345711454e-04  1.6149984351707802e-04  1.0922748977781533e-04  6.9494524103228789e-05  3.8484366793960357e-05  1.3097243874016762e-05  -8.9408367830685929e-06  -2.9010745018272516e-05  -4.7573155346772833e-05  -6.4166280665626071e-05  -7.7379089657750658e-05  -8.4855716642867892e-05  -8.2900234272216829e-05  -6.7363976422964549e-05  -3.1318737795060961e-05  5.1835456474507889e-06  1.7800090634264951e-05  2.9463074676058644e-05  -9.1266542549610480e-05  -2.6988627371510022e-04  -4.6674018767310329e-04  -6.5339997160842472e-04  -8.0947498065709852e-04  -9.2048597969019547e-04  -9.7834861785771744e-04  -9.8169682044629315e-04  -9.3554296805987373e-04  -8.5007209471843004e-04  -7.3879475491774320e-04  -6.1645821134321502e-04  -4.9710667246860465e-04  -3.9258174728812339e-04  -3.1158991664274644e-04  -2.5930933511811045e-04  -2.3740584026198743e-04  -2.4429619971773727e-04  -2.7553216394031384e-04  -3.2425723507875089e-04  -3.8177782584658803e-04  -4.3832443446627700e-04  -4.8404450029112406e-04  -5.1014580076727816e-04  -5.0993144438707730e-04  -4.7933553501968270e-04  -4.1664754805476696e-04  -3.2139774660230229e-04  -1.9265267161979862e-04  -2.7303191024600004e-05  1.8088643867997600e-04  4.4107974559204496e-04  7.6418153696811511e-04  1.1614004567609428e-03  1.6430764048696875e-03  2.2179628742906182e-03  2.8925269292064989e-03  3.6700984410598558e-03  4.5498890935888672e-03  5.5257923100603722e-03  6.5853857748997746e-03  7.7093013106267396e-03  8.8709273882963298e-03  1.0037152311288664e-02  1.1169970190815020e-02  1.2228515142161733e-02  1.3172075261906786e-02  1.3962897711308502e-02  1.4568727426968046e-02  1.4964618740351654e-02  1.5133869524470753e-02  1.5068038464425568e-02  1.4766203065317044e-02  1.4233690288932628e-02  1.3480550461738220e-02  1.2520011884890631e-02  1.1367100047054728e-02  1.0037534483934957e-02  8.5469628913514735e-03  6.9105487772025088e-03  5.1428665775317536e-03  3.2583012396975009e-03  1.2713195021268199e-03  -8.0358498269078485e-04  -2.9489566280612375e-03  -5.1455543756700282e-03  -7.3728817679879020e-03  -9.6050888120680859e-03  -1.1811851584844910e-02  -1.3957664032687318e-02  -1.6001976601203699e-02  -1.7899602491142520e-02  -1.9601873848009526e-02  -2.1058453016800430e-02  -2.2219837948992960e-02  -2.3040520768177742e-02  -2.3482406068055055e-02  -2.3518464963696351e-02  -2.3136618373784456e-02  -2.2336776734622660e-02  -2.1144254754493472e-02  -1.9595057924426916e-02  -1.7741146215772705e-02  -1.5646750606048469e-02  -1.3382175690549291e-02  -1.1019377602050857e-02  -8.6269843501472557e-03  -6.2657648542702830e-03  -3.9859734725606524e-03  -1.8239480301962669e-03  1.9397982107989705e-04  2.0528342120917360e-03  3.7463475081016659e-03  5.2698777066522880e-03  6.6167550847620717e-03  7.7764884423722315e-03  8.7282483292489086e-03  9.4423220082363937e-03  9.8866559285929034e-03  1.0033908220897973e-02  9.8721225777609056e-03  9.4136734941270700e-03  8.6989498354529890e-03  7.7928672256465208e-03  6.7746217522454584e-03  5.7242917733986145e-03  4.7107110640304201e-03  3.7840676636993068e-03  2.9738148322047088e-03  2.2910182571720442e-03  1.7329128438173201e-03  1.2878346347579856e-03  9.3934272034363676e-04  6.6925708188930711e-04  4.5973770934841469e-04  2.9468290589511158e-04  1.6067132033813989e-04  4.7567236015409941e-05  -5.1162649200258231e-05  -1.3835163741125848e-04  -2.1319081430873482e-04  -2.7131263620261279e-04  -3.0495742332168095e-04  -3.0299087502600754e-04  -2.5282099708665208e-04  -1.4381669557179356e-04  1.1388608626499266e-06  2.4977240139800231e-05  -3.3056105010803875e-05  -2.9351051075426785e-04  -6.5206615045907454e-04  -1.0410196084042107e-03  -1.4071157001995648e-03  -1.7103592525696952e-03  -1.9227204404092505e-03  -2.0291791197955939e-03  -2.0279827457176311e-03  -1.9295976029930432e-03  -1.7541602161698945e-03  -1.5279114221812128e-03  -1.2792857153720550e-03  -1.0353269973485233e-03  -8.1889121496648784e-04  -6.4683689228155878e-04  -5.2916048089590793e-04  -4.6887656715497979e-04  -4.6238458899153109e-04  -5.0012688126285754e-04  -5.6747151776870449e-04  -6.4588179269742339e-04  -7.1450277796921747e-04  -7.5218729539127966e-04  -7.3972392128903049e-04  -6.6174440008987228e-04  -5.0763628009177107e-04  -2.7084234102116501e-04  5.3553828834036411e-05  4.7213099264189378e-04  9.9596565320328304e-04  1.6417839219143296e-03  2.4308726569950228e-03  3.3861928551500585e-03  4.5287902192538212e-03  5.8747089663793595e-03  7.4326661493015608e-03  9.2017673021831236e-03  1.1169072508972380e-02  1.3307078575019214e-02  1.5572264721611396e-02  1.7904921632788874e-02  2.0231105701475717e-02  2.2467138147340616e-02  2.4525799293484789e-02  2.6323588296830361e-02  2.7787814385871811e-02  2.8861894658291816e-02  2.9508542780052077e-02  2.9710365898568829e-02  2.9468304162397502e-02  2.8798490158687566e-02  2.7728304886019076e-02  2.6292285467652738e-02  2.4528400478118190e-02  2.2474992871487791e-02  2.0168524094718487e-02  1.7642115117451004e-02  1.4924804940736270e-02  1.2041404728696466e-02  9.0128271660449445e-03  5.8567993481704189e-03  2.5887411180037195e-03  -7.7651503981106176e-04  -4.2234926902793629e-03  -7.7376910742084489e-03  -1.1300045601004133e-02  -1.4885234757202642e-02  -1.8462515486241789e-02  -2.1993467247314564e-02  -2.5431437914046152e-02  -2.8721009871018010e-02  -3.1798503444928891e-02  -3.4593236072089022e-02  -3.7029990706752766e-02  -3.9032598533000597e-02  -4.0528614952940141e-02  -4.1454829962619989e-02  -4.1762893026187270e-02  -4.1424571611478958e-02  -4.0438268659775449e-02  -3.8823825146298889e-02  -3.6632361442905575e-02  -3.3936333792377163e-02  -3.0825511979749410e-02  -2.7400820144443106e-02  -2.3765857942317579e-02  -2.0019390242930386e-02  -1.6249169910795135e-02  -1.2526935068034570e-02  -8.9073917591841138e-03  -5.4247463551050047e-03  -2.0980378606487507e-03  1.0636072401685049e-03  4.0566865932224359e-03  6.8744898741320984e-03  9.4963970413997137e-03  1.1884632292952972e-02  1.3978155723013190e-02  1.5692455936895142e-02  1.6932422820162354e-02  1.7610813576202203e-02  1.7672533662209784e-02  1.7116840130429543e-02  1.6008185597486929e-02  1.4470130447352614e-02  1.2662948777423700e-02  1.0753083900386089e-02  8.8851937473852696e-03  7.1650293023312267e-03  5.6549203879810786e-03  4.3789565129689258e-03  3.3327858274031829e-03  2.4939842275434206e-03  1.8307512944636206e-03  1.3083470027514098e-03  8.9355729587784654e-04  5.5764672018658178e-04  2.7815382890184159e-04  3.9808915494523115e-05  -1.6521066993370847e-04  -3.3746321988542647e-04  -4.7067425700409956e-04  -5.5234252814161523e-04  -5.6471378836339963e-04  -4.8730777753358941e-04  -3.0235633374999833e-04  -8.1911431764714756e-06  2.9470223912315488e-05  -1.7038629171886349e-04  -6.2259553452537100e-04  -1.2037016078975825e-03  -1.8191088296334501e-03  -2.3896133574650776e-03  -2.8538441085076967e-03  -3.1694122440239520e-03  -3.3149424773206743e-03  -3.2901762091145097e-03  -3.1137141640596795e-03  -2.8185450094244560e-03  -2.4462487944747536e-03  -2.0409561084147451e-03  -1.6439910586804485e-03  -1.2897849572171094e-03  -1.0032560098813946e-03  -7.9852688640743024e-04  -6.7867168950509294e-04  -6.3615487619735804e-04  -6.5373378916844650e-04  -7.0577956438004424e-04  -7.6016603075825190e-04  -7.8088229190290278e-04  -7.3135237345520838e-04  -5.7801967041628665e-04  -2.9321720321688215e-04  1.4389582249253250e-04  7.4899988764146367e-04  1.5365723100637010e-03  2.5247239972979955e-03  3.7385253544527449e-03  5.2097346223777168e-03  6.9726062906740015e-03  9.0574113649064970e-03  1.1483536264024841e-02  1.4253420832824354e-02  1.7347601748368469e-02  2.0720847959646148e-02  2.4299436392534946e-02  2.7981505352362407e-02  3.1641453901495635e-02  3.5139095741858001e-02  3.8332206185538793e-02  4.1090086201849320e-02  4.3305647170951110e-02  4.4903595660094268e-02  4.5843629134649191e-02  4.6119003809469247e-02  4.5751389972557420e-02  4.4783710835134209e-02  4.3272411607254847e-02  4.1280362527521867e-02  3.8871066970067619e-02  3.6104453288463831e-02  3.3034189909224770e-02  2.9706298009082928e-02  2.6158758754865539e-02  2.2421828723883298e-02  1.8518822045962620e-02  1.4467189569720557e-02  1.0279779111964649e-02  5.9662024179341858e-03  1.5344123526933398e-03  -3.0084598444324270e-03  -7.6544428468163141e-03  -1.2389526467876921e-02  -1.7196074115246197e-02  -2.2050458106745528e-02  -2.6919684933110616e-02  -3.1760391360535253e-02  -3.6517036256597420e-02  -4.1121134724389878e-02  -4.5491010046111925e-02  -4.9532921597687879e-02  -5.3143574506952021e-02  -5.6214448671754916e-02  -5.8637902573470839e-02  -6.0314870089047179e-02  -6.1163667016338533e-02  -6.1128761980332701e-02  -6.0187268135214696e-02  -5.8357797140358908e-02  -5.5696178538736041e-02  -5.2296809873562798e-02  -4.8283787620002940e-02  -4.3800072582547062e-02  -3.8995107241037039e-02  -3.4012060841319872e-02  -2.8976760783754350e-02  -2.3990085180825443e-02  -1.9122625372453239e-02  -1.4416831485584378e-02  -9.8871273436526227e-03  -5.5261029989330298e-03  -1.3136245251106527e-03  2.7716492015289807e-03  6.7381775998848464e-03  1.0565268630339497e-02  1.4193069506652669e-02  1.7516380832748403e-02  2.0384286879888084e-02  2.2619023534755662e-02  2.4048916721970213e-02  2.4551314855361581e-02  2.4093232646768110e-02  2.2752897363559853e-02  2.0711359551778472e-02  1.8215168067533972e-02  1.5524564956658344e-02  1.2866446577711894e-02  1.0406041417390788e-02  8.2400139613707235e-03  6.4053158746741759e-03  4.8952170502946854e-03  3.6759008292188383e-03  2.7003189553412845e-03  1.9184599494777544e-03  1.2843290910166565e-03  7.6028571524258833e-04  3.1932467120324734e-04  -5.4139596386686134e-05  -3.6448616137065687e-04  -6.0568590617851754e-04  -7.6241439893374541e-04  -8.1159625021835888e-04  -7.2448159418436807e-04  -4.7066614548919720e-04  -1.8511330340887639e-05  3.2680758024945018e-05  -3.8029324236092947e-04  -1.0809319862190216e-03  -1.9279881381837369e-03  -2.8001126376883292e-03  -3.5910422643093995e-03  -4.2172310347411588e-03  -4.6224426120416995e-03  -4.7811801468068717e-03  -4.6983332670225003e-03  -4.4049616209549322e-03  -3.9510187745997764e-03  -3.3966031902625312e-03  -2.8033700320289549e-03  -2.2273321346545517e-03  -1.7136607846631492e-03  -1.2935238501787351e-03  -9.8262537322259865e-04  -7.8096353832858968e-04  -6.7338167511505774e-04  -6.3070815566039094e-04  -6.1157612865426461e-04  -5.6518884398736491e-04  -4.3530915640355730e-04  -1.6527184953496108e-04  2.9693735347874215e-04  9.9506609292491577e-04  1.9640265825478466e-03  3.2331631771051837e-03  4.8320116833588458e-03  6.7952774639323419e-03  9.1637098487015872e-03  1.1979019892567947e-02  1.5273637069154425e-02  1.9058604135057902e-02  2.3313006290407820e-02  2.7976118545251585e-02  3.2943195310914872e-02  3.8066338975928184e-02  4.3162547279344043e-02  4.8028985184724371e-02  5.2463649182049307e-02  5.6286881670589005e-02  5.9359071406568965e-02  6.1591073577150095e-02  6.2946085638309723e-02  6.3434164085158423e-02  6.3101946328745467e-02  6.2020417946434966e-02  6.0273271373666358e-02  5.7947350657066334e-02  5.5125835951288601e-02  5.1884057794509275e-02  4.8287456131714299e-02  4.4391045354501509e-02  4.0239809037420422e-02  3.5869576603024173e-02  3.1308095215111187e-02  2.6576139404419958e-02  2.1688598211698201e-02  1.6655536735397412e-02  1.1483262667101623e-02  6.1754585658955492e-03  7.3428660597968766e-04  -4.8376943056297125e-03  -1.0535783205366382e-02  -1.6354238331076985e-02  -2.2281182053876244e-02  -2.8296656564981881e-02  -3.4371111602693426e-02  -4.0462408691848299e-02  -4.6513687469036995e-02  -5.2451183212058355e-02  -5.8183008886361541e-02  -6.3598927919706449e-02  -6.8571911102785169e-02  -7.2961815476769040e-02  -7.6621689148073824e-02  -7.9406770185717138e-02  -8.1185836127126210e-02  -8.1854097529978687e-02  -8.1346597010137120e-02  -7.9647179592567743e-02  -7.6798095839188549e-02  -7.2898296131385321e-02  -6.8098337190552902e-02  -6.2587453673290230e-02  -5.6575846311319719e-02  -5.0274744748837717e-02  -4.3877323186928704e-02  -3.7543110230161963e-02  -3.1388331963824623e-02  -2.5480483605889181e-02  -1.9841994584493674e-02  -1.4455937690220204e-02  -9.2778956858943912e-03  -4.2482851230788710e-03  6.9352164781683512e-04  5.5857183831138748e-03  1.0420959216276948e-02  1.5128522369443759e-02  1.9564828497361599e-02  2.3514198861158239e-02  2.6714374575303738e-02  2.8905265120566254e-02  2.9892663102779830e-02  2.9608553239456607e-02  2.8142929014381649e-02  2.5731148084238480e-02  2.2699764527200083e-02  1.9393169398362754e-02  1.6109074755617153e-02  1.3061436605103425e-02  1.0373076978005626e-02  8.0889548434117699e-03  6.1983261255528803e-03  4.6571771452639460e-03  3.4067285906115041e-03  2.3869255543588976e-03  1.5452414165188740e-03  8.4166633369709830e-04  2.5083207186885211e-04  -2.3778548522659086e-04  -6.2078048195297647e-04  -8.8218321605346714e-04  -9.9508932023949356e-04  -9.2267015188553323e-04  -6.2041093798671494e-04  -2.8454907804323113e-05  3.5763643421562852e-05  -6.6089493823965912e-04  -1.6719978795464413e-03  -2.8329858406665391e-03  -3.9925192647052533e-03  -5.0147367892819329e-03  -5.7931149269259789e-03  -6.2592107649483471e-03  -6.3875876955760266e-03  -6.1942558804292175e-03  -5.7292514368499350e-03  -5.0652335568631976e-03  -4.2847962853594362e-03  -3.4688743702944599e-03  -2.6877373453752873e-03  -1.9950181616869749e-03  -1.4244595784744167e-03  -9.8865861731817889e-04  -6.7907079276205472e-04  -4.6680124600851117e-04  -3.0410539734200027e-04  -1.2692455086867456e-04  1.4098612603583984e-04  5.8214629593092708e-04  1.2781961240935736e-03  2.3031245275565867e-03  3.7194157890899126e-03  5.5788732998269955e-03  7.9274714593115334e-03  1.0811042300958857e-02  1.4276663767047176e-02  1.8365810341647051e-02  2.3100004945149327e-02  2.8463423143486904e-02  3.4387705705359109e-02  4.0743055574189786e-02  4.7338479598068840e-02  5.3932973788314090e-02  6.025792424295