<?xml version="1.0"?>
<VTKFile type="UnstructuredGrid"  version="0.1"  >
<UnstructuredGrid>
<Piece  NumberOfPoints="16641" NumberOfCells="16384">
<Points>
<DataArray  type="Float64"  NumberOfComponents="3"  format="ascii">0 0 0  0.0078125 0 0  0.015625 0 0  0.0234375 0 0  0.03125 0 0  0.0390625 0 0  0.046875 0 0  0.0546875 0 0  0.0625 0 0  0.0703125 0 0  0.078125 0 0  0.0859375 0 0  0.09375 0 0  0.1015625 0 0  0.109375 0 0  0.1171875 0 0  0.125 0 0  0.1328125 0 0  0.140625 0 0  0.1484375 0 0  0.15625 0 0  0.1640625 0 0  0.171875 0 0  0.1796875 0 0  0.1875 0 0  0.1953125 0 0  0.203125 0 0  0.2109375 0 0  0.21875 0 0  0.2265625 0 0  0.234375 0 0  0.2421875 0 0  0.25 0 0  0.2578125 0 0  0.265625 0 0  0.2734375 0 0  0.28125 0 0  0.2890625 0 0  0.296875 0 0  0.3046875 0 0  0.3125 0 0  0.3203125 0 0  0.328125 0 0  0.3359375 0 0  0.34375 0 0  0.3515625 0 0  0.359375 0 0  0.3671875 0 0  0.375 0 0  0.3828125 0 0  0.390625 0 0  0.3984375 0 0  0.40625 0 0  0.4140625 0 0  0.421875 0 0  0.4296875 0 0  0.4375 0 0  0.4453125 0 0  0.453125 0 0  0.4609375 0 0  0.46875 0 0  0.4765625 0 0  0.484375 0 0  0.4921875 0 0  0.5 0 0  0.5078125 0 0  0.515625 0 0  0.5234375 0 0  0.53125 0 0  0.5390625 0 0  0.546875 0 0  0.5546875 0 0  0.5625 0 0  0.5703125 0 0  0.578125 0 0  0.5859375 0 0  0.59375 0 0  0.6015625 0 0  0.609375 0 0  0.6171875 0 0  0.625 0 0  0.6328125 0 0  0.640625 0 0  0.6484375 0 0  0.65625 0 0  0.6640625 0 0  0.671875 0 0  0.6796875 0 0  0.6875 0 0  0.6953125 0 0  0.703125 0 0  0.7109375 0 0  0.71875 0 0  0.7265625 0 0  0.734375 0 0  0.7421875 0 0  0.75 0 0  0.7578125 0 0  0.765625 0 0  0.7734375 0 0  0.78125 0 0  0.7890625 0 0  0.796875 0 0  0.8046875 0 0  0.8125 0 0  0.8203125 0 0  0.828125 0 0  0.8359375 0 0  0.84375 0 0  0.8515625 0 0  0.859375 0 0  0.8671875 0 0  0.875 0 0  0.8828125 0 0  0.890625 0 0  0.8984375 0 0  0.90625 0 0  0.9140625 0 0  0.921875 0 0  0.9296875 0 0  0.9375 0 0  0.9453125 0 0  0.953125 0 0  0.9609375 0 0  0.96875 0 0  0.9765625 0 0  0.984375 0 0  0.9921875 0 0  1 0 0  0 0.0078125 0  0.0078125 0.0078125 0  0.015625 0.0078125 0  0.0234375 0.0078125 0  0.03125 0.0078125 0  0.0390625 0.0078125 0  0.046875 0.0078125 0  0.0546875 0.0078125 0  0.0625 0.0078125 0  0.0703125 0.0078125 0  0.078125 0.0078125 0  0.0859375 0.0078125 0  0.09375 0.0078125 0  0.1015625 0.0078125 0  0.109375 0.0078125 0  0.1171875 0.0078125 0  0.125 0.0078125 0  0.1328125 0.0078125 0  0.140625 0.0078125 0  0.1484375 0.0078125 0  0.15625 0.0078125 0  0.1640625 0.0078125 0  0.171875 0.0078125 0  0.1796875 0.0078125 0  0.1875 0.0078125 0  0.1953125 0.0078125 0  0.203125 0.0078125 0  0.2109375 0.0078125 0  0.21875 0.0078125 0  0.2265625 0.0078125 0  0.234375 0.0078125 0  0.2421875 0.0078125 0  0.25 0.0078125 0  0.2578125 0.0078125 0  0.265625 0.0078125 0  0.2734375 0.0078125 0  0.28125 0.0078125 0  0.2890625 0.0078125 0  0.296875 0.0078125 0  0.3046875 0.0078125 0  0.3125 0.0078125 0  0.3203125 0.0078125 0  0.328125 0.0078125 0  0.3359375 0.0078125 0  0.34375 0.0078125 0  0.3515625 0.0078125 0  0.359375 0.0078125 0  0.3671875 0.0078125 0  0.375 0.0078125 0  0.3828125 0.0078125 0  0.390625 0.0078125 0  0.3984375 0.0078125 0  0.40625 0.0078125 0  0.4140625 0.0078125 0  0.421875 0.0078125 0  0.4296875 0.0078125 0  0.4375 0.0078125 0  0.4453125 0.0078125 0  0.453125 0.0078125 0  0.4609375 0.0078125 0  0.46875 0.0078125 0  0.4765625 0.0078125 0  0.484375 0.0078125 0  0.4921875 0.0078125 0  0.5 0.0078125 0  0.5078125 0.0078125 0  0.515625 0.0078125 0  0.5234375 0.0078125 0  0.53125 0.0078125 0  0.5390625 0.0078125 0  0.546875 0.0078125 0  0.5546875 0.0078125 0  0.5625 0.0078125 0  0.5703125 0.0078125 0  0.578125 0.0078125 0  0.5859375 0.0078125 0  0.59375 0.0078125 0  0.6015625 0.0078125 0  0.609375 0.0078125 0  0.6171875 0.0078125 0  0.625 0.0078125 0  0.6328125 0.0078125 0  0.640625 0.0078125 0  0.6484375 0.0078125 0  0.65625 0.0078125 0  0.6640625 0.0078125 0  0.671875 0.0078125 0  0.6796875 0.0078125 0  0.6875 0.0078125 0  0.6953125 0.0078125 0  0.703125 0.0078125 0  0.7109375 0.0078125 0  0.71875 0.0078125 0  0.7265625 0.0078125 0  0.734375 0.0078125 0  0.7421875 0.0078125 0  0.75 0.0078125 0  0.7578125 0.0078125 0  0.765625 0.0078125 0  0.7734375 0.0078125 0  0.78125 0.0078125 0  0.7890625 0.0078125 0  0.796875 0.0078125 0  0.8046875 0.0078125 0  0.8125 0.0078125 0  0.8203125 0.0078125 0  0.828125 0.0078125 0  0.8359375 0.0078125 0  0.84375 0.0078125 0  0.8515625 0.0078125 0  0.859375 0.0078125 0  0.8671875 0.0078125 0  0.875 0.0078125 0  0.8828125 0.0078125 0  0.890625 0.0078125 0  0.8984375 0.0078125 0  0.90625 0.0078125 0  0.9140625 0.0078125 0  0.921875 0.0078125 0  0.9296875 0.0078125 0  0.9375 0.0078125 0  0.9453125 0.0078125 0  0.953125 0.0078125 0  0.9609375 0.0078125 0  0.96875 0.0078125 0  0.9765625 0.0078125 0  0.984375 0.0078125 0  0.9921875 0.0078125 0  1 0.0078125 0  0 0.015625 0  0.0078125 0.015625 0  0.015625 0.015625 0  0.0234375 0.015625 0  0.03125 0.015625 0  0.0390625 0.015625 0  0.046875 0.015625 0  0.0546875 0.015625 0  0.0625 0.015625 0  0.0703125 0.015625 0  0.078125 0.015625 0  0.0859375 0.015625 0  0.09375 0.015625 0  0.1015625 0.015625 0  0.109375 0.015625 0  0.1171875 0.015625 0  0.125 0.015625 0  0.1328125 0.015625 0  0.140625 0.015625 0  0.1484375 0.015625 0  0.15625 0.015625 0  0.1640625 0.015625 0  0.171875 0.015625 0  0.1796875 0.015625 0  0.1875 0.015625 0  0.1953125 0.015625 0  0.203125 0.015625 0  0.2109375 0.015625 0  0.21875 0.015625 0  0.2265625 0.015625 0  0.234375 0.015625 0  0.2421875 0.015625 0  0.25 0.015625 0  0.2578125 0.015625 0  0.265625 0.015625 0  0.2734375 0.015625 0  0.28125 0.015625 0  0.2890625 0.015625 0  0.296875 0.015625 0  0.3046875 0.015625 0  0.3125 0.015625 0  0.3203125 0.015625 0  0.328125 0.015625 0  0.3359375 0.015625 0  0.34375 0.015625 0  0.3515625 0.015625 0  0.359375 0.015625 0  0.3671875 0.015625 0  0.375 0.015625 0  0.3828125 0.015625 0  0.390625 0.015625 0  0.3984375 0.015625 0  0.40625 0.015625 0  0.4140625 0.015625 0  0.421875 0.015625 0  0.4296875 0.015625 0  0.4375 0.015625 0  0.4453125 0.015625 0  0.453125 0.015625 0  0.4609375 0.015625 0  0.46875 0.015625 0  0.4765625 0.015625 0  0.484375 0.015625 0  0.4921875 0.015625 0  0.5 0.015625 0  0.5078125 0.015625 0  0.515625 0.015625 0  0.5234375 0.015625 0  0.53125 0.015625 0  0.5390625 0.015625 0  0.546875 0.015625 0  0.5546875 0.015625 0  0.5625 0.015625 0  0.5703125 0.015625 0  0.578125 0.015625 0  0.5859375 0.015625 0  0.59375 0.015625 0  0.6015625 0.015625 0  0.609375 0.015625 0  0.6171875 0.015625 0  0.625 0.015625 0  0.6328125 0.015625 0  0.640625 0.015625 0  0.6484375 0.015625 0  0.65625 0.015625 0  0.6640625 0.015625 0  0.671875 0.015625 0  0.6796875 0.015625 0  0.6875 0.015625 0  0.6953125 0.015625 0  0.703125 0.015625 0  0.7109375 0.015625 0  0.71875 0.015625 0  0.7265625 0.015625 0  0.734375 0.015625 0  0.7421875 0.015625 0  0.75 0.015625 0  0.7578125 0.015625 0  0.765625 0.015625 0  0.7734375 0.015625 0  0.78125 0.015625 0  0.7890625 0.015625 0  0.796875 0.015625 0  0.8046875 0.015625 0  0.8125 0.015625 0  0.8203125 0.015625 0  0.828125 0.015625 0  0.8359375 0.015625 0  0.84375 0.015625 0  0.8515625 0.015625 0  0.859375 0.015625 0  0.8671875 0.015625 0  0.875 0.015625 0  0.8828125 0.015625 0  0.890625 0.015625 0  0.8984375 0.015625 0  0.90625 0.015625 0  0.9140625 0.015625 0  0.921875 0.015625 0  0.9296875 0.015625 0  0.9375 0.015625 0  0.9453125 0.015625 0  0.953125 0.015625 0  0.9609375 0.015625 0  0.96875 0.015625 0  0.9765625 0.015625 0  0.984375 0.015625 0  0.9921875 0.015625 0  1 0.015625 0  0 0.0234375 0  0.0078125 0.0234375 0  0.015625 0.0234375 0  0.0234375 0.0234375 0  0.03125 0.0234375 0  0.0390625 0.0234375 0  0.046875 0.0234375 0  0.0546875 0.0234375 0  0.0625 0.0234375 0  0.0703125 0.0234375 0  0.078125 0.0234375 0  0.0859375 0.0234375 0  0.09375 0.0234375 0  0.1015625 0.0234375 0  0.109375 0.0234375 0  0.1171875 0.0234375 0  0.125 0.0234375 0  0.1328125 0.0234375 0  0.140625 0.0234375 0  0.1484375 0.0234375 0  0.15625 0.0234375 0  0.1640625 0.0234375 0  0.171875 0.0234375 0  0.1796875 0.0234375 0  0.1875 0.0234375 0  0.1953125 0.0234375 0  0.203125 0.0234375 0  0.2109375 0.0234375 0  0.21875 0.0234375 0  0.2265625 0.0234375 0  0.234375 0.0234375 0  0.2421875 0.0234375 0  0.25 0.0234375 0  0.2578125 0.0234375 0  0.265625 0.0234375 0  0.2734375 0.0234375 0  0.28125 0.0234375 0  0.2890625 0.0234375 0  0.296875 0.0234375 0  0.3046875 0.0234375 0  0.3125 0.0234375 0  0.3203125 0.0234375 0  0.328125 0.0234375 0  0.3359375 0.0234375 0  0.34375 0.0234375 0  0.3515625 0.0234375 0  0.359375 0.0234375 0  0.3671875 0.0234375 0  0.375 0.0234375 0  0.3828125 0.0234375 0  0.390625 0.0234375 0  0.3984375 0.0234375 0  0.40625 0.0234375 0  0.4140625 0.0234375 0  0.421875 0.0234375 0  0.4296875 0.0234375 0  0.4375 0.0234375 0  0.4453125 0.0234375 0  0.453125 0.0234375 0  0.4609375 0.0234375 0  0.46875 0.0234375 0  0.4765625 0.0234375 0  0.484375 0.0234375 0  0.4921875 0.0234375 0  0.5 0.0234375 0  0.5078125 0.0234375 0  0.515625 0.0234375 0  0.5234375 0.0234375 0  0.53125 0.0234375 0  0.5390625 0.0234375 0  0.546875 0.0234375 0  0.5546875 0.0234375 0  0.5625 0.0234375 0  0.5703125 0.0234375 0  0.578125 0.0234375 0  0.5859375 0.0234375 0  0.59375 0.0234375 0  0.6015625 0.0234375 0  0.609375 0.0234375 0  0.6171875 0.0234375 0  0.625 0.0234375 0  0.6328125 0.0234375 0  0.640625 0.0234375 0  0.6484375 0.0234375 0  0.65625 0.0234375 0  0.6640625 0.0234375 0  0.671875 0.0234375 0  0.6796875 0.0234375 0  0.6875 0.0234375 0  0.6953125 0.0234375 0  0.703125 0.0234375 0  0.7109375 0.0234375 0  0.71875 0.0234375 0  0.7265625 0.0234375 0  0.734375 0.0234375 0  0.7421875 0.0234375 0  0.75 0.0234375 0  0.7578125 0.0234375 0  0.765625 0.0234375 0  0.7734375 0.0234375 0  0.78125 0.0234375 0  0.7890625 0.0234375 0  0.796875 0.0234375 0  0.8046875 0.0234375 0  0.8125 0.0234375 0  0.8203125 0.0234375 0  0.828125 0.0234375 0  0.8359375 0.0234375 0  0.84375 0.0234375 0  0.8515625 0.0234375 0  0.859375 0.0234375 0  0.8671
[...]
<PointData  Scalars="u_sol"> 
<DataArray  type="Float64"  Name="u_sol"  format="ascii">1.5494788893491147e-06  -6.2646311558833170e-06  -1.7872515017298913e-05  -2.3940559568787198e-05  -2.4200204060221481e-05  -1.8868661754782614e-05  -8.6955892161488526e-06  5.2392965185549483e-06  2.1523041207934224e-05  3.8575021923198245e-05  5.4872849889681126e-05  6.9178763347089214e-05  8.0698995281746740e-05  8.9147223759755481e-05  9.4713597953760358e-05  9.7965228649463785e-05  9.9716291503598040e-05  1.0090641084421726e-04  1.0250071035928127e-04  1.0542321632522216e-04  1.1051074432540060e-04  1.1848013430167284e-04  1.2989957734528426e-04  1.4516015711884137e-04  1.6446241379683202e-04  1.8786019823264352e-04  2.1532441352729227e-04  2.4679591104646804e-04  2.8234795261760932e-04  3.2245132377095169e-04  3.6796763916831021e-04  4.1987159849047337e-04  4.7912878784617236e-04  5.4685427234734242e-04  6.2453445149558392e-04  7.1360936966784411e-04  8.1507231719756392e-04  9.2909908278275056e-04  1.0559516092082854e-03  1.1959310880839884e-03  1.3491397308816127e-03  1.5146901696917420e-03  1.6904299107298318e-03  1.8733164941307121e-03  2.0594881678197069e-03  2.2440453234908089e-03  2.4204239747735142e-03  2.5801506961958699e-03  2.7128916425044345e-03  2.8066418129727403e-03  2.8483683906730633e-03  2.8250407279915833e-03  2.7248190175077529e-03  2.5381955195304040e-03  2.2588968446093649e-03  1.8844592441920748e-03  1.4164699465939903e-03  8.6052741567749105e-04  2.2600911763755890e-04  -4.7429501721475562e-04  -1.2245797984564266e-03  -2.0065704503644021e-03  -2.8000871151041148e-03  -3.5834981197693833e-03  -4.3394312367183207e-03  -5.0445726503623176e-03  -5.6607951930991059e-03  -6.1561517970189156e-03  -6.5052553742858538e-03  -6.6837155159214781e-03  -6.6715584049420532e-03  -6.4540775643872408e-03  -6.0230209370090923e-03  -5.3783210433892515e-03  -4.5291144920101651e-03  -3.4947075503103477e-03  -2.3048721676942152e-03  -9.9908368524542421e-04  3.7394805453172118e-04  1.7621624207515654e-03  3.1111819787124377e-03  4.3556674671628177e-03  5.4437553984610261e-03  6.3400414614512941e-03  7.0186623752990472e-03  7.4591222587243912e-03  7.6612522170018708e-03  7.6369970547776472e-03  7.4102587401212519e-03  7.0128785215272079e-03  6.4815083268906191e-03  5.8527608179309047e-03  5.1634716075939918e-03  4.4623213482911589e-03  3.7709342982623151e-03  3.0856171603546659e-03  2.4307599133319962e-03  1.8297162558681668e-03  1.2907712263136436e-03  8.2373413116211699e-04  4.3601145415695622e-04  1.2975170799340484e-04  -9.7361817990261455e-05  -2.5242327395521387e-04  -3.4623409007698109e-04  -3.9148484991064701e-04  -4.0103724280645482e-04  -3.8649683098875356e-04  -3.5728097405329095e-04  -3.2044606084501528e-04  -2.8102126532571599e-04  -2.4258974447230149e-04  -2.0740954162597083e-04  -1.7627976142552948e-04  -1.4934861487414579e-04  -1.2663866860804929e-04  -1.0779116392871493e-04  -9.2239840329284384e-05  -7.9327171291024097e-05  -6.8320185715976841e-05  -5.8479345231086150e-05  -4.9110970019146288e-05  -3.9635853049301277e-05  -2.9671535556188773e-05  -1.9126754795318362e-05  -8.4909957912052549e-06  9.7353461460636893e-07  4.9340456673441667e-06  -1.8138029943206632e-07  3.9033405303738107e-06  -2.3443334804953187e-05  -2.6263288217235874e-05  5.7478549658158921e-05  2.4875185248678149e-04  5.5008936783459213e-04  9.4986444767249014e-04  1.4266478449559943e-03  1.9524726758507686e-03  2.4965623858338973e-03  3.0291083790759273e-03  3.5246542967003868e-03  3.9645998742125202e-03  4.3385393146961231e-03  4.6444015536418314e-03  4.8875792278830930e-03  5.0793578576333832e-03  5.2349772904245803e-03  5.3716207739695513e-03  5.5065105620400109e-03  5.6552142425536104e-03  5.8301933408264556e-03  6.0396326293527562e-03  6.2866369799666755e-03  6.5689138996062038e-03  6.8790250189373833e-03  7.2053258327540882e-03  7.5334859762940624e-03  7.8479724745986554e-03  8.1329652879049575e-03  8.3727847985248030e-03  8.5515838181801206e-03  8.6518724295330061e-03  8.6521979349625053e-03  8.5250742549533281e-03  8.2368209869059777e-03  7.7482042584942224e-03  7.0151909716037924e-03  5.9880952162311915e-03  4.6122645512272553e-03  2.8298128277618653e-03  5.8199343772598745e-04  -2.1885567874214600e-03  -5.5354409834816043e-03  -9.5050660334775414e-03  -1.4132164918618547e-02  -1.9435633715478143e-02  -2.5414207174695485e-02  -3.2043082967691830e-02  -3.9272468173573119e-02  -4.7028079755683773e-02  -5.5213476664200262e-02  -6.3713781838142650e-02  -7.2400234969541330e-02  -8.1134995935184917e-02  -8.9775711484650814e-02  -9.8179491376565606e-02  -1.0620609565473002e-01  -1.1372028546784034e-01  -1.2059338742420971e-01  -1.2670425627925805e-01  -1.3193974405660386e-01  -1.3619502019258317e-01  -1.3937412298675156e-01  -1.4138708350780133e-01  -1.4215542539033924e-01  -1.4161570924682865e-01  -1.3971674454725175e-01  -1.3642535532233116e-01  -1.3172425600374596e-01  -1.2561561833692139e-01  -1.1812457300798403e-01  -1.0930221291947591e-01  -9.9228371246670138e-02  -8.8014014048015135e-02  -7.5802481700565000e-02  -6.2769427752473350e-02  -4.9121099211815789e-02  -3.5089839732776316e-02  -2.0929749529924081e-02  -6.9043641187744517e-03  6.7198359469261490e-03  1.9670859989074925e-02  3.1718899639209229e-02  4.2651322229474563e-02  5.2296986436423311e-02  6.0528149248558760e-02  6.7266331505633839e-02  7.2480660906757532e-02  7.6184836690965499e-02  7.8430546842314347e-02  7.9298561124410957e-02  7.8892600038205224e-02  7.7322512764507079e-02  7.4716315712221426e-02  7.1219915515128726e-02  6.6951976531913787e-02  6.2030724755286690e-02  5.6595037602038559e-02  5.0792268582220565e-02  4.4782679783010551e-02  3.8739412574765708e-02  3.2838819243824972e-02  2.7247636815498622e-02  2.2107687216497297e-02  1.7522519382636749e-02  1.3550090798845791e-02  1.0202894431462432e-02  7.4550581313614335e-03  5.2529481640248774e-03  3.5266990887315485e-03  2.2009012401223828e-03  1.2022030915352518e-03  4.6365429483949091e-04  -7.2265596141286875e-05  -4.5218297669837347e-04  -7.1249496637286784e-04  -8.8016204009077465e-04  -9.7398859273613769e-04  -1.0064099155626962e-03  -9.8541836697400636e-04  -9.1662463001970958e-04  -8.0532268980121661e-04  -6.5855342801075161e-04  -4.8713201555148033e-04  -3.0781294745298475e-04  -1.4490050490085753e-04  -3.1289978858262307e-05  6.4620467484072389e-06  -6.5462288647854170e-07  1.5535117229013246e-06  7.8416121889174253e-05  2.9456397510245475e-04  6.7701992399597007e-04  1.2282072034654208e-03  1.9292944566167880e-03  2.7462490965345261e-03  3.6353511894949802e-03  4.5490905105143933e-03  5.4417929258120399e-03  6.2744531092991601e-03  7.0182306005028075e-03  7.6563384585342838e-03  8.1843064988295251e-03  8.6088314934399304e-03  8.9455821793534094e-03  9.2163862213665865e-03  9.4461498751922772e-03  9.6598142351394713e-03  9.8795135021502271e-03  1.0122079429664413e-02  1.0397011104012390e-02  1.0705040647464260e-02  1.1037509296711722e-02  1.1376786648079845e-02  1.1697472290789376e-02  1.1968031838818593e-02  1.2152892406395353e-02  1.2214295701716072e-02  1.2112141787180248e-02  1.1801689285813764e-02  1.1231100715234857e-02  1.0340346329320479e-02  9.0605186325934933e-03  7.3118296141740516e-03  5.0035300695306555e-03  2.0369288395824491e-03  -1.6894931332864702e-03  -6.2763617685290029e-03  -1.1818803995087905e-02  -1.8398857057174152e-02  -2.6076406010271547e-02  -3.4879892009798311e-02  -4.4797802692996463e-02  -5.5773117474864020e-02  -6.7700526182792806e-02  -8.0429459899853145e-02  -9.3771531516000955e-02  -1.0751063202530604e-01  -1.2141473695545450e-01  -1.3524772506444172e-01  -1.4877992622288955e-01  -1.6179652467276245e-01  -1.7410341816304328e-01  -1.8553055641499808e-01  -1.9593308219326436e-01  -2.0519076250495447e-01  -2.1320623943057024e-01  -2.1990259966720777e-01  -2.2522064719645149e-01  -2.2911620401683161e-01  -2.3155753680353133e-01  -2.3252288938195081e-01  -2.3199921046845348e-01  -2.2998264430673440e-01  -2.2648543107661162e-01  -2.2152189026322530e-01  -2.1510135996747698e-01  -2.0724598425989552e-01  -1.9798735074609253e-01  -1.8736947807796589e-01  -1.7545165531980059e-01  -1.6231122686365565e-01  -1.4804641333635157e-01  -1.3277860365108932e-01  -1.1665377638982898e-01  -9.9842707466261463e-02  -8.2539615648252726e-02  -6.4959106900262575e-02  -4.7336337556172739e-02  -2.9902922842188623e-02  -1.2877597958856448e-02  3.4835576938560564e-03  1.8971803635959367e-02  3.3399165724831995e-02  4.6603167875356101e-02  5.8452410130043479e-02  6.8847745532534491e-02  7.7721359322239406e-02  8.5033754358041558e-02  9.0773602036808218e-02  9.4945946081549146e-02  9.7563743878595038e-02  9.8654301383826137e-02  9.8252129314923262e-02  9.6424029243258783e-02  9.3248929723013851e-02  8.8806398618508406e-02  8.3208860978652918e-02  7.6611498906435413e-02  6.9217416346032262e-02  6.1281328018121833e-02  5.3098874713375065e-02  4.4983147363038718e-02  3.7232160520087938e-02  3.0095044916061808e-02  2.3747107337535423e-02  1.8279270996666135e-02  1.3704233550591751e-02  9.9739550211553583e-03  7.0009038714412509e-03  4.6781220998766649e-03  2.8954180803984937e-03  1.5500298048955973e-03  5.5206894934525688e-04  -1.7224192832113471e-04  -6.8057809846622632e-04  -1.0162673361638125e-03  -1.2107315810511781e-03  -1.2866643366581149e-03  -1.2613882992913183e-03  -1.1502229346131152e-03  -9.6965313327373700e-04  -7.4027948817751994e-04  -4.8904474515575221e-04  -2.5111952474108219e-04  -6.6742300421127244e-05  1.2862301406039302e-05  -7.2686861001915797e-06  3.5775580586853817e-05  2.1259259080406726e-04  5.7517888026276023e-04  1.1457070977739497e-03  1.9204316577772116e-03  2.8720379539273980e-03  3.9556560825465565e-03  5.1157720380323943e-03  6.2935620824349989e-03  7.4336832809847606e-03  8.4897890345322132e-03  9.4282691298645596e-03  1.0230004977813933e-02  1.0890267416659197e-02  1.1417098171572215e-02  1.1828585335201791e-02  1.2149452224738771e-02  1.2407341267848607e-02  1.2629040472030686e-02  1.2836905905374731e-02  1.3045610747605775e-02  1.3259421858286094e-02  1.3470314917461040e-02  1.3657088184632798e-02  1.3785452906693588e-02  1.3809583912306076e-02  1.3674752726017366e-02  1.3318900924921330e-02  1.2672252657605234e-02  1.1657080115961227e-02  1.0187496880720391e-02  8.1664500614790064e-03  5.4814046603538840e-03  2.0050778777259358e-03  -2.3988065310606315e-03  -7.8702100261538559e-03  -1.4546742866073660e-02  -2.2552551330558834e-02  -3.1984228191331177e-02  -4.2895736169323503e-02  -5.5284464759940095e-02  -6.9079699260114452e-02  -8.4137134032715583e-02  -1.0024275226260697e-01  -1.1712509688722265e-01  -1.3447484172846119e-01  -1.5196683689428905e-01  -1.6928181604424986e-01  -1.8612489862982187e-01  -2.0223876975482591e-01  -2.1741116695952342e-01  -2.3147706759870240e-01  -2.4431663591217720e-01  -2.5585022437069055e-01  -2.6603169400897270e-01  -2.7484111807276446e-01  -2.8227765562826906e-01  -2.8835310510426243e-01  -2.9308640567535443e-01  -2.9649919266446212e-01  -2.9861237347324338e-01  -2.9944371251001284e-01  -2.9900635019104033e-01  -2.9730921525813725e-01  -2.9435519775995733e-01  -2.9012892648804428e-01  -2.8461320995810507e-01  -2.7780131745224790e-01  -2.6968340867192875e-01  -2.6025577878669959e-01  -2.4952257090441751e-01  -2.3750013981737625e-01  -2.2422133593470719e-01  -2.0973987421961238e-01  -1.9413457623173916e-01  -1.7751284724662914e-01  -1.6001284094874643e-01  -1.4180384301369661e-01  -1.2308382210219265e-01  -1.0407117459510409e-01  -8.5008848445248905e-02  -6.6150339397717514e-02  -4.7715256982122749e-02  -2.9933527700174080e-02  -1.3001005614863953e-02  2.9210545842720138e-03  1.7707652592160023e-02  3.1270188317690323e-02  4.3551955798163879e-02  5.4522403857886356e-02  6.4165813595260329e-02  7.2478027576649923e-02  7.9470378886155213e-02  8.5131798268570438e-02  8.9425246267398062e-02  9.2293697820420989e-02  9.3682637173693087e-02  9.3554387781996692e-02  9.1873393841161527e-02  8.8632633319772294e-02  8.3885390147630814e-02  7.7766128412168081e-02  7.0506727661822838e-02  6.2434346928108467e-02  5.3945309233786237e-02  4.5458563247538900e-02  3.7359412553874753e-02  2.9951331901938230e-02  2.3428433351138013e-02  1.7873565212110521e-02  1.3276731570546459e-02  9.5638944731649984e-03  6.6262154466762372e-03  4.3429875563455855e-03  2.5978459238842132e-03  1.2875714018041606e-03  3.2628612200545648e-04  -3.5393428082111097e-04  -8.0528719008931746e-04  -1.0675081403312445e-03  -1.1717995802051865e-03  -1.1448185593442776e-03  -1.0123945930666243e-03  -8.0280636484278336e-04  -5.4922905553049452e-04  -2.9223071959669678e-04  -7.9799712451890357e-05  1.5559153870980412e-05  -1.3761024678882992e-05  6.8513030298068890e-05  3.4802119146283404e-04  8.6084954390778558e-04  1.6182909862783987e-03  2.6053605318018818e-03  3.7825127955514399e-03  5.0919960199641064e-03  6.4660636939639247e-03  7.8357171455953525e-03  9.1385226308842282e-03  1.0324491795088818e-02  1.1359490788666556e-02  1.2226214356848383e-02  1.2923084218665126e-02  1.3461605093888353e-02  1.3862764165163131e-02  1.4152920798366922e-02  1.4359482292367332e-02  1.4506630601218082e-02  1.4611130753876208e-02  1.4678507849974544e-02  1.4699852879338884e-02  1.4649432578602737e-02  1.4483739317211301e-02  1.4142530901359722e-02  1.3550332663304443e-02  1.2617428566806477e-02  1.1242188064176824e-02  9.3130556906777760e-03  6.7051966497257490e-03  3.2759554325924160e-03  -1.1336316643035167e-03  -6.6941511353799613e-03  -1.3582649874213974e-02  -2.1970303929237264e-02  -3.2004141501494034e-02  -4.3786966480657469e-02  -5.7357911537270580e-02  -7.2671743146122639e-02  -8.9584926495523437e-02  -1.0785456962336948e-01  -1.2715232517970987e-01  -1.4709105510182457e-01  -1.6725845128493663e-01  -1.8725188800546583e-01  -2.0670790934226810e-01  -2.2532318459026954e-01  -2.4286518674503965e-01  -2.5917332832744350e-01  -2.7415274922818922e-01  -2.8776333263501191e-01  -3.0000654668629351e-01  -3.1091219012395155e-01  -3.2052648643430837e-01  -3.2890231880475213e-01  -3.3609186767042304e-01  -3.4214153914719742e-01  -3.4708885562934599e-01  -3.5096089317521800e-01  -3.5377383978973398e-01  -3.5553331696812479e-01  -3.5623511272955127e-01  -3.5586621371304378e-01  -3.5440397858408962e-01  -3.5181732316107084e-01  -3.4808218987201539e-01  -3.4317327034253403e-01  -3.3705402531666290e-01  -3.2969036747686836e-01  -3.2104792006886335e-01  -3.1109669359235392e-01  -2.9981422063319768e-01  -2.8719031772638393e-01  -2.7323247241347354e-01  -2.5797184696655812e-01  -2.4146949386260005e-01  -2.2382211371864602e-01  -2.0516635467665581e-01  -1.8568089235165308e-01  -1.6558653330766762e-01  -1.4513428790091926e-01  -1.2459776071565042e-01  -1.0427367310464519e-01  -8.4436917431604433e-02  -6.5343159616176899e-02  -4.7206614490460860e-02  -3.0189587790996904e-02  -1.4398176498521851e-02  1.1661491255555316e-04  1.3350456078265028e-02  2.5335526502893800e-02  3.6122643768511258e-02  4.5755630052147951e-02  5.4295296481614415e-02  6.1796151224559476e-02  6.8251911487042169e-02  7.3595992289461412e-02  7.7717365204385755e-02  8.0486212625532016e-02  8.1757174936493246e-02  8.1391602511427408e-02  7.9303339069266052e-02  7.5500844651808466e-02  7.0122287015402546e-02  6.3449407544086456e-02  5.5887133556456650e-02  4.7910562586676350e-02  3.9991890153601981e-02  3.2531075762428967e-02  2.5810582410565743e-02  1.9983553493460343e-02  1.5089759300816406e-02  1.1086136854933317e-02  7.8809720616506290e-03  5.3623544147659965e-03  3.4175735877113875e-03  1.9444117200355733e-03  8.5622035367020075e-04  8.2899590435194992e-05  -4.3122429817861875e-04  -7.3080180084055609e-04  -8.5336256719799027e-04  -8.3311346668026238e-04  -7.0440350279030260e-04  -5.0462962659489049e-04  -2.7795076206362483e-04  -7.7810778020772565e-05  1.5165498697181105e-05  -1.9824854353273801e-05  9.8757068622009594e-05  4.7979704637359205e-04  1.1465047689122429e-03  2.0957826009131830e-03  3.2965703817384412e-03  4.6919814653781219e-03  6.2070216993756920e-03  7.7587877773363789e-03  9.2670837326809460e-03  1.0663370545933932e-02  1.1896733007508601e-02  1.2936433984287215e-02  1.3771329703798952e-02  1.4406949125946615e-02  1.4861168188788883e-02  1.5159229062968486e-02  1.5328604949047045e-02  1.5393974043417583e-02  1.5372215930653792e-02  1.5267773210352845e-02  1.5068299962666648e-02  1.4740997215092404e-02  1.4230725447030470e-02  1.3459556105645247e-02  1.2327031083097913e-02  1.0713361633766886e-02  8.4838308842638422e-03  5.4878654463694099e-03  1.5565224969961275e-03  -3.4958393690133708e-03  -9.8700834452920168e-03  -1.7776698913714674e-02  -2.7418212169944663e-02  -3.8964991305299033e-02  -5.2530516611443305e-02  -6.8142521612846452e-02  -8.5716125584035865e-02  -1.0503869142171401e-01  -1.2577504602445874e-01  -1.4749276773980077e-01  -1.6970362150103610e-01  -1.9191256588243180e-01  -2.1366377474201378e-01  -2.3457581846526041e-01  -2.5436137798884823e-01  -2.7283163036469260e-01  -2.8988784776591398e-01  -3.0550475920015147e-01  -3.1971027052243667e-01  -3.3256537386348339e-01  -3.4414689579176588e-01  -3.5453440560190719e-01  -3.6380153018194072e-01  -3.7201117140901774e-01  -3.7921373958996812e-01  -3.8544741730885596e-01  -3.9073956223447293e-01  -3.9510854632055381e-01  -3.9856554056076121e-01  -4.0111595470570582e-01  -4.0276038244499468e-01  -4.0349507168607168e-01  -4.0331174303157796e-01  -4.0219869788230178e-01  -4.0014198370012966e-01  -3.9711483030366196e-01  -3.9308002360956773e-01  -3.8799786598693098e-01  -3.8181934261310008e-01  -3.7449017645140964e-01  -3.6595106181699361e-01  -3.5614078570783048e-01  -3.4499983315036226e-01  -3.3247579986602627e-01  -3.1853034171660422e-01  -3.0314772088720721e-01  -2.8634451698109520e-01  -2.6817977515239000e-01  -2.4876416373455112e-01  -2.2826572489681765e-01  -2.0691473303857247e-01  -1.8499849903854387e-01  -1.6284343762112988e-01  -1.4080821489703979e-01  -1.1924963122138411e-01  -9.8499661100264993e-02  -7.8838753896961808e-02  -6.0476157549549027e-02  -4.3539419870563797e-02  -2.8073402349702448e-02  -1.4050709866606576e-02  -1.3868860755234659e-03  1.0044255976314276e-02  2.0362311082739601e-02  2.9673857252442627e-02  3.8098330028968973e-02  4.5708386883988691e-02  5.2490959389116444e-02  5.8352877358146316e-02  6.3138837458239422e-02  6.6646236024036534e-02  6.8648477782813466e-02  6.8946904917624202e-02  6.7430630500462441e-02  6.4129924496972676e-02  5.9247525224503668e-02  5.3148275340679729e-02  4.6306158325415639e-02  3.9222759555058016e-02  3.2345126660968594e-02  2.6008262003652690e-02  2.0414526894075760e-02  1.5645852724924750e-02  1.1693548073722608e-02  8.4920780739436846e-03  5.9491157069662820e-03  3.9664043429921952e-03  2.4519264771330216e-03  1.3256125248920891e-03  5.2066479668996378e-04  -1.8039202575318107e-05  -3.3685499527062474e-04  -4.7668749235995901e-04  -4.7634240554949171e-04  -3.7572451508644818e-04  -2.2023187163656380e-04  -6.4260055423826036e-05  1.2534442070978369e-05  -2.5828626879051961e-05  1.2849333820662206e-04  6.1434113455645205e-04  1.4442460375683978e-03  2.5981005823654726e-03  4.0235329268125293e-03  5.6400853795766839e-03  7.3498572485892252e-03  9.0508992106499708e-03  1.0650406597877934e-02  1.2074862310923893e-02  1.3275641292866484e-02  1.4229798678674349e-02  1.4936950315914107e-02  1.5413676363312879e-02  1.5686814882674361e-02  1.5786633742107713e-02  1.5740322608417085e-02  1.5565833109906304e-02  1.5266299626399242e-02  1.4824505559745722e-02  1.4198348551355634e-02  1.3317770429886808e-02  1.2082539949515187e-02  1.0363541828299355e-02  8.0079953059145458e-03  4.8418630986025411e-03  6.7114343016867024e-04  -4.7142970422678517e-03  -1.1540327689959788e-02  -2.0044039083638422e-02  -3.0455974543410258e-02  -4.2974865431350186e-02  -5.7735413116784172e-02  -7.4768494195876944e-02  -9.3966150418414537e-02  -1.1506521555075193e-01  -1.3765574940914740e-01  -1.6121643131848062e-01  -1.8517057653015229e-01  -2