<?xml version="1.0"?>
<VTKFile type="UnstructuredGrid"  version="0.1"  >
<UnstructuredGrid>
<Piece  NumberOfPoints="16641" NumberOfCells="16384">
<Points>
<DataArray  type="Float64"  NumberOfComponents="3"  format="ascii">0 0 0  0.0078125 0 0  0.015625 0 0  0.0234375 0 0  0.03125 0 0  0.0390625 0 0  0.046875 0 0  0.0546875 0 0  0.0625 0 0  0.0703125 0 0  0.078125 0 0  0.0859375 0 0  0.09375 0 0  0.1015625 0 0  0.109375 0 0  0.1171875 0 0  0.125 0 0  0.1328125 0 0  0.140625 0 0  0.1484375 0 0  0.15625 0 0  0.1640625 0 0  0.171875 0 0  0.1796875 0 0  0.1875 0 0  0.1953125 0 0  0.203125 0 0  0.2109375 0 0  0.21875 0 0  0.2265625 0 0  0.234375 0 0  0.2421875 0 0  0.25 0 0  0.2578125 0 0  0.265625 0 0  0.2734375 0 0  0.28125 0 0  0.2890625 0 0  0.296875 0 0  0.3046875 0 0  0.3125 0 0  0.3203125 0 0  0.328125 0 0  0.3359375 0 0  0.34375 0 0  0.3515625 0 0  0.359375 0 0  0.3671875 0 0  0.375 0 0  0.3828125 0 0  0.390625 0 0  0.3984375 0 0  0.40625 0 0  0.4140625 0 0  0.421875 0 0  0.4296875 0 0  0.4375 0 0  0.4453125 0 0  0.453125 0 0  0.4609375 0 0  0.46875 0 0  0.4765625 0 0  0.484375 0 0  0.4921875 0 0  0.5 0 0  0.5078125 0 0  0.515625 0 0  0.5234375 0 0  0.53125 0 0  0.5390625 0 0  0.546875 0 0  0.5546875 0 0  0.5625 0 0  0.5703125 0 0  0.578125 0 0  0.5859375 0 0  0.59375 0 0  0.6015625 0 0  0.609375 0 0  0.6171875 0 0  0.625 0 0  0.6328125 0 0  0.640625 0 0  0.6484375 0 0  0.65625 0 0  0.6640625 0 0  0.671875 0 0  0.6796875 0 0  0.6875 0 0  0.6953125 0 0  0.703125 0 0  0.7109375 0 0  0.71875 0 0  0.7265625 0 0  0.734375 0 0  0.7421875 0 0  0.75 0 0  0.7578125 0 0  0.765625 0 0  0.7734375 0 0  0.78125 0 0  0.7890625 0 0  0.796875 0 0  0.8046875 0 0  0.8125 0 0  0.8203125 0 0  0.828125 0 0  0.8359375 0 0  0.84375 0 0  0.8515625 0 0  0.859375 0 0  0.8671875 0 0  0.875 0 0  0.8828125 0 0  0.890625 0 0  0.8984375 0 0  0.90625 0 0  0.9140625 0 0  0.921875 0 0  0.9296875 0 0  0.9375 0 0  0.9453125 0 0  0.953125 0 0  0.9609375 0 0  0.96875 0 0  0.9765625 0 0  0.984375 0 0  0.9921875 0 0  1 0 0  0 0.0078125 0  0.0078125 0.0078125 0  0.015625 0.0078125 0  0.0234375 0.0078125 0  0.03125 0.0078125 0  0.0390625 0.0078125 0  0.046875 0.0078125 0  0.0546875 0.0078125 0  0.0625 0.0078125 0  0.0703125 0.0078125 0  0.078125 0.0078125 0  0.0859375 0.0078125 0  0.09375 0.0078125 0  0.1015625 0.0078125 0  0.109375 0.0078125 0  0.1171875 0.0078125 0  0.125 0.0078125 0  0.1328125 0.0078125 0  0.140625 0.0078125 0  0.1484375 0.0078125 0  0.15625 0.0078125 0  0.1640625 0.0078125 0  0.171875 0.0078125 0  0.1796875 0.0078125 0  0.1875 0.0078125 0  0.1953125 0.0078125 0  0.203125 0.0078125 0  0.2109375 0.0078125 0  0.21875 0.0078125 0  0.2265625 0.0078125 0  0.234375 0.0078125 0  0.2421875 0.0078125 0  0.25 0.0078125 0  0.2578125 0.0078125 0  0.265625 0.0078125 0  0.2734375 0.0078125 0  0.28125 0.0078125 0  0.2890625 0.0078125 0  0.296875 0.0078125 0  0.3046875 0.0078125 0  0.3125 0.0078125 0  0.3203125 0.0078125 0  0.328125 0.0078125 0  0.3359375 0.0078125 0  0.34375 0.0078125 0  0.3515625 0.0078125 0  0.359375 0.0078125 0  0.3671875 0.0078125 0  0.375 0.0078125 0  0.3828125 0.0078125 0  0.390625 0.0078125 0  0.3984375 0.0078125 0  0.40625 0.0078125 0  0.4140625 0.0078125 0  0.421875 0.0078125 0  0.4296875 0.0078125 0  0.4375 0.0078125 0  0.4453125 0.0078125 0  0.453125 0.0078125 0  0.4609375 0.0078125 0  0.46875 0.0078125 0  0.4765625 0.0078125 0  0.484375 0.0078125 0  0.4921875 0.0078125 0  0.5 0.0078125 0  0.5078125 0.0078125 0  0.515625 0.0078125 0  0.5234375 0.0078125 0  0.53125 0.0078125 0  0.5390625 0.0078125 0  0.546875 0.0078125 0  0.5546875 0.0078125 0  0.5625 0.0078125 0  0.5703125 0.0078125 0  0.578125 0.0078125 0  0.5859375 0.0078125 0  0.59375 0.0078125 0  0.6015625 0.0078125 0  0.609375 0.0078125 0  0.6171875 0.0078125 0  0.625 0.0078125 0  0.6328125 0.0078125 0  0.640625 0.0078125 0  0.6484375 0.0078125 0  0.65625 0.0078125 0  0.6640625 0.0078125 0  0.671875 0.0078125 0  0.6796875 0.0078125 0  0.6875 0.0078125 0  0.6953125 0.0078125 0  0.703125 0.0078125 0  0.7109375 0.0078125 0  0.71875 0.0078125 0  0.7265625 0.0078125 0  0.734375 0.0078125 0  0.7421875 0.0078125 0  0.75 0.0078125 0  0.7578125 0.0078125 0  0.765625 0.0078125 0  0.7734375 0.0078125 0  0.78125 0.0078125 0  0.7890625 0.0078125 0  0.796875 0.0078125 0  0.8046875 0.0078125 0  0.8125 0.0078125 0  0.8203125 0.0078125 0  0.828125 0.0078125 0  0.8359375 0.0078125 0  0.84375 0.0078125 0  0.8515625 0.0078125 0  0.859375 0.0078125 0  0.8671875 0.0078125 0  0.875 0.0078125 0  0.8828125 0.0078125 0  0.890625 0.0078125 0  0.8984375 0.0078125 0  0.90625 0.0078125 0  0.9140625 0.0078125 0  0.921875 0.0078125 0  0.9296875 0.0078125 0  0.9375 0.0078125 0  0.9453125 0.0078125 0  0.953125 0.0078125 0  0.9609375 0.0078125 0  0.96875 0.0078125 0  0.9765625 0.0078125 0  0.984375 0.0078125 0  0.9921875 0.0078125 0  1 0.0078125 0  0 0.015625 0  0.0078125 0.015625 0  0.015625 0.015625 0  0.0234375 0.015625 0  0.03125 0.015625 0  0.0390625 0.015625 0  0.046875 0.015625 0  0.0546875 0.015625 0  0.0625 0.015625 0  0.0703125 0.015625 0  0.078125 0.015625 0  0.0859375 0.015625 0  0.09375 0.015625 0  0.1015625 0.015625 0  0.109375 0.015625 0  0.1171875 0.015625 0  0.125 0.015625 0  0.1328125 0.015625 0  0.140625 0.015625 0  0.1484375 0.015625 0  0.15625 0.015625 0  0.1640625 0.015625 0  0.171875 0.015625 0  0.1796875 0.015625 0  0.1875 0.015625 0  0.1953125 0.015625 0  0.203125 0.015625 0  0.2109375 0.015625 0  0.21875 0.015625 0  0.2265625 0.015625 0  0.234375 0.015625 0  0.2421875 0.015625 0  0.25 0.015625 0  0.2578125 0.015625 0  0.265625 0.015625 0  0.2734375 0.015625 0  0.28125 0.015625 0  0.2890625 0.015625 0  0.296875 0.015625 0  0.3046875 0.015625 0  0.3125 0.015625 0  0.3203125 0.015625 0  0.328125 0.015625 0  0.3359375 0.015625 0  0.34375 0.015625 0  0.3515625 0.015625 0  0.359375 0.015625 0  0.3671875 0.015625 0  0.375 0.015625 0  0.3828125 0.015625 0  0.390625 0.015625 0  0.3984375 0.015625 0  0.40625 0.015625 0  0.4140625 0.015625 0  0.421875 0.015625 0  0.4296875 0.015625 0  0.4375 0.015625 0  0.4453125 0.015625 0  0.453125 0.015625 0  0.4609375 0.015625 0  0.46875 0.015625 0  0.4765625 0.015625 0  0.484375 0.015625 0  0.4921875 0.015625 0  0.5 0.015625 0  0.5078125 0.015625 0  0.515625 0.015625 0  0.5234375 0.015625 0  0.53125 0.015625 0  0.5390625 0.015625 0  0.546875 0.015625 0  0.5546875 0.015625 0  0.5625 0.015625 0  0.5703125 0.015625 0  0.578125 0.015625 0  0.5859375 0.015625 0  0.59375 0.015625 0  0.6015625 0.015625 0  0.609375 0.015625 0  0.6171875 0.015625 0  0.625 0.015625 0  0.6328125 0.015625 0  0.640625 0.015625 0  0.6484375 0.015625 0  0.65625 0.015625 0  0.6640625 0.015625 0  0.671875 0.015625 0  0.6796875 0.015625 0  0.6875 0.015625 0  0.6953125 0.015625 0  0.703125 0.015625 0  0.7109375 0.015625 0  0.71875 0.015625 0  0.7265625 0.015625 0  0.734375 0.015625 0  0.7421875 0.015625 0  0.75 0.015625 0  0.7578125 0.015625 0  0.765625 0.015625 0  0.7734375 0.015625 0  0.78125 0.015625 0  0.7890625 0.015625 0  0.796875 0.015625 0  0.8046875 0.015625 0  0.8125 0.015625 0  0.8203125 0.015625 0  0.828125 0.015625 0  0.8359375 0.015625 0  0.84375 0.015625 0  0.8515625 0.015625 0  0.859375 0.015625 0  0.8671875 0.015625 0  0.875 0.015625 0  0.8828125 0.015625 0  0.890625 0.015625 0  0.8984375 0.015625 0  0.90625 0.015625 0  0.9140625 0.015625 0  0.921875 0.015625 0  0.9296875 0.015625 0  0.9375 0.015625 0  0.9453125 0.015625 0  0.953125 0.015625 0  0.9609375 0.015625 0  0.96875 0.015625 0  0.9765625 0.015625 0  0.984375 0.015625 0  0.9921875 0.015625 0  1 0.015625 0  0 0.0234375 0  0.0078125 0.0234375 0  0.015625 0.0234375 0  0.0234375 0.0234375 0  0.03125 0.0234375 0  0.0390625 0.0234375 0  0.046875 0.0234375 0  0.0546875 0.0234375 0  0.0625 0.0234375 0  0.0703125 0.0234375 0  0.078125 0.0234375 0  0.0859375 0.0234375 0  0.09375 0.0234375 0  0.1015625 0.0234375 0  0.109375 0.0234375 0  0.1171875 0.0234375 0  0.125 0.0234375 0  0.1328125 0.0234375 0  0.140625 0.0234375 0  0.1484375 0.0234375 0  0.15625 0.0234375 0  0.1640625 0.0234375 0  0.171875 0.0234375 0  0.1796875 0.0234375 0  0.1875 0.0234375 0  0.1953125 0.0234375 0  0.203125 0.0234375 0  0.2109375 0.0234375 0  0.21875 0.0234375 0  0.2265625 0.0234375 0  0.234375 0.0234375 0  0.2421875 0.0234375 0  0.25 0.0234375 0  0.2578125 0.0234375 0  0.265625 0.0234375 0  0.2734375 0.0234375 0  0.28125 0.0234375 0  0.2890625 0.0234375 0  0.296875 0.0234375 0  0.3046875 0.0234375 0  0.3125 0.0234375 0  0.3203125 0.0234375 0  0.328125 0.0234375 0  0.3359375 0.0234375 0  0.34375 0.0234375 0  0.3515625 0.0234375 0  0.359375 0.0234375 0  0.3671875 0.0234375 0  0.375 0.0234375 0  0.3828125 0.0234375 0  0.390625 0.0234375 0  0.3984375 0.0234375 0  0.40625 0.0234375 0  0.4140625 0.0234375 0  0.421875 0.0234375 0  0.4296875 0.0234375 0  0.4375 0.0234375 0  0.4453125 0.0234375 0  0.453125 0.0234375 0  0.4609375 0.0234375 0  0.46875 0.0234375 0  0.4765625 0.0234375 0  0.484375 0.0234375 0  0.4921875 0.0234375 0  0.5 0.0234375 0  0.5078125 0.0234375 0  0.515625 0.0234375 0  0.5234375 0.0234375 0  0.53125 0.0234375 0  0.5390625 0.0234375 0  0.546875 0.0234375 0  0.5546875 0.0234375 0  0.5625 0.0234375 0  0.5703125 0.0234375 0  0.578125 0.0234375 0  0.5859375 0.0234375 0  0.59375 0.0234375 0  0.6015625 0.0234375 0  0.609375 0.0234375 0  0.6171875 0.0234375 0  0.625 0.0234375 0  0.6328125 0.0234375 0  0.640625 0.0234375 0  0.6484375 0.0234375 0  0.65625 0.0234375 0  0.6640625 0.0234375 0  0.671875 0.0234375 0  0.6796875 0.0234375 0  0.6875 0.0234375 0  0.6953125 0.0234375 0  0.703125 0.0234375 0  0.7109375 0.0234375 0  0.71875 0.0234375 0  0.7265625 0.0234375 0  0.734375 0.0234375 0  0.7421875 0.0234375 0  0.75 0.0234375 0  0.7578125 0.0234375 0  0.765625 0.0234375 0  0.7734375 0.0234375 0  0.78125 0.0234375 0  0.7890625 0.0234375 0  0.796875 0.0234375 0  0.8046875 0.0234375 0  0.8125 0.0234375 0  0.8203125 0.0234375 0  0.828125 0.0234375 0  0.8359375 0.0234375 0  0.84375 0.0234375 0  0.8515625 0.0234375 0  0.859375 0.0234375 0  0.8671
[...]
<PointData  Scalars="v_sol"> 
<DataArray  type="Float64"  Name="v_sol"  format="ascii">-1.5351814631787406e-06  -3.8030156349038684e-06  1.7207654262655030e-06  1.0872287521980349e-05  2.1009148921704895e-05  3.0651625477744978e-05  3.8754743160134527e-05  4.4569567400149495e-05  4.7664449971159871e-05  4.7951115243456788e-05  4.5682379776243996e-05  4.1389824410119991e-05  3.5786048404436715e-05  2.9648522062808577e-05  2.3713578834106295e-05  1.8596014710524468e-05  1.4742064881337394e-05  1.2413313050942072e-05  1.1692814700261302e-05  1.2503131634094174e-05  1.4628530916365363e-05  1.7737970579399369e-05  2.1412591546407623e-05  2.5183216548416588e-05  2.8577955333664347e-05  3.1181308048196515e-05  3.2697779784716266e-05  3.2982394128763070e-05  3.2014298568731271e-05  2.9846360500229923e-05  2.6536459512088385e-05  2.2057168358111143e-05  1.6198183548351194e-05  8.5475331598605885e-06  -1.4174570266073842e-06  -1.4202175321647561e-05  -3.0312312879793326e-05  -5.0265764423385642e-05  -7.4572090569997957e-05  -1.0363651417832268e-04  -1.3773809612949137e-04  -1.7714885607208225e-04  -2.2190562444137886e-04  -2.7191120750108864e-04  -3.2660926940325416e-04  -3.8512966544816207e-04  -4.4641853270214788e-04  -5.0880462010843657e-04  -5.7031528231839658e-04  -6.2877268714644932e-04  -6.8191611594260564e-04  -7.2757003115073138e-04  -7.6376972595837466e-04  -7.8887213472147359e-04  -8.0161645609213683e-04  -8.0114332149125152e-04  -7.8697543059382956e-04  -7.5896190721486774e-04  -7.1723259784858286e-04  -6.6208376158913361e-04  -5.9406201689069296e-04  -5.1357194495863445e-04  -4.2179455502713994e-04  -3.1858425384079985e-04  -2.0643244674633404e-04  -8.6186642340586961e-05  4.6906180836152924e-05  1.8635949547934021e-04  3.2840004379574379e-04  4.7341766254366865e-04  6.1742467247981510e-04  7.5826569875627164e-04  8.9237517735637074e-04  1.0165550284574447e-03  1.1271606628115056e-03  1.2207927318656062e-03  1.2939734925237582e-03  1.3439792558581250e-03  1.3681181747987317e-03  1.3648067128904499e-03  1.3374177794396381e-03  1.2734343076176409e-03  1.1865864276282643e-03  1.0819100347745881e-03  9.5221908119145831e-04  8.1010309929899292e-04  6.5707358728213296e-04  5.0062004546135106e-04  3.4499001261503303e-04  1.9557772763096744e-04  5.5566017575320502e-05  -7.3617561814865920e-05  -1.8528127333873563e-04  -2.8111226897628837e-04  -3.6600900122926976e-04  -4.3618850626368918e-04  -4.9258333317890970e-04  -5.3590316129620015e-04  -5.6459322326591818e-04  -5.7812076969012587e-04  -5.7587622033070584e-04  -5.5778404262897465e-04  -5.2501615065989656e-04  -4.7997438732207831e-04  -4.2620590296409599e-04  -3.6780286254436848e-04  -3.0887349782370943e-04  -2.5280033509954768e-04  -2.0189098321069207e-04  -1.5762229675202362e-04  -1.2050171970035402e-04  -9.0309095236658734e-05  -6.6364561158602608e-05  -4.7772662801237657e-05  -3.3587191895806661e-05  -2.2839902420407138e-05  -1.4658643341436674e-05  -8.2748422348527873e-06  -3.0632135610307546e-06  1.4353788342778685e-06  5.5009125550995916e-06  9.2341580942543931e-06  1.2541686867431732e-05  1.5161995941419033e-05  1.6601480841710770e-05  1.6209924129189453e-05  1.3057795679208441e-05  6.4823105204045309e-06  -1.8037073478448079e-07  6.1832223277659919e-06  2.3351191832409255e-05  -6.2990816306681227e-06  -5.3653133790500213e-05  -1.0552066131181563e-04  -1.5476293621700729e-04  -1.9605295792926290e-04  -2.2564360810605101e-04  -2.4130051227016179e-04  -2.4259070556646690e-04  -2.3082290745948041e-04  -2.0875108774647376e-04  -1.8004939898165183e-04  -1.4871267765522469e-04  -1.1850502340646443e-04  -9.2550381041575761e-05  -7.3099518102023563e-05  -6.1457560994737878e-05  -5.8023885465806726e-05  -6.2389567467893844e-05  -7.3450535944790185e-05  -8.9522739930511218e-05  -1.0847644624531205e-04  -1.2792008224043322e-04  -1.4545080453827483e-04  -1.5896294451478020e-04  -1.6695266383777850e-04  -1.6868396572813533e-04  -1.6412442390555370e-04  -1.5366079814408553e-04  -1.3762610490418353e-04  -1.1582504114484576e-04  -8.7183907341110891e-05  -4.9741301574236195e-05  -9.5349743082421754e-07  6.1814015786852878e-05  1.4125352219949365e-04  2.3993822158152494e-04  3.6023167300062103e-04  5.0409137194352179e-04  6.7299115926506507e-04  8.6818247895856628e-04  1.0898665717299415e-03  1.3370792284174554e-03  1.6070318649138019e-03  1.8954644236739097e-03  2.1968340302883417e-03  2.5034096764120122e-03  2.8061083454609089e-03  3.0950564893437167e-03  3.3600471828208840e-03  3.5911362696167924e-03  3.7791533585140643e-03  3.9161479029050277e-03  3.9956870524499935e-03  4.0129867757603332e-03  3.9648758742385146e-03  3.8496311057480428e-03  3.6667353990862519e-03  3.4166242068277160e-03  3.1004803085571157e-03  2.7201383282040173e-03  2.2781773262973942e-03  1.7780238183284554e-03  1.2268319495125739e-03  6.2024150008977786e-04  -4.6549083195414971e-05  -7.5335855181209307e-04  -1.4886553701979395e-03  -2.2458176497402024e-03  -3.0092686163693998e-03  -3.7646652809128446e-03  -4.4936771433370642e-03  -5.1766775828286813e-03  -5.7922614045177716e-03  -6.3185523329293714e-03  -6.7341503866289159e-03  -7.0199218623931987e-03  -7.1596140308942376e-03  -7.1461111524692006e-03  -6.9765035782192470e-03  -6.6308073697684735e-03  -6.1464044524014013e-03  -5.5497339111280613e-03  -4.8421423842031361e-03  -4.0638508540063248e-03  -3.2438000732317260e-03  -2.4144496808208059e-03  -1.6035509409461858e-03  -8.3531706265701524e-04  -1.2677744988994600e-04  5.1410624437763246e-04  1.0677891562989855e-03  1.5354862910020878e-03  1.9415094984026329e-03  2.2796002708045087e-03  2.5437794135813084e-03  2.7404477325124687e-03  2.8665920047825822e-03  2.9178154132491708e-03  2.8923096758539579e-03  2.7906552869852064e-03  2.6188260325304027e-03  2.3888273997304315e-03  2.1177350112659243e-03  1.8253110203933387e-03  1.5311897720579283e-03  1.2517671702202300e-03  9.9857575923248637e-04  7.7855469100293227e-04  5.9419126698652847e-04  4.4445505862865950e-04  3.2588462355689110e-04  2.3395173284377607e-04  1.6393141447207016e-04  1.1102918451962951e-04  7.0823784607723298e-05  3.9473336195116871e-05  1.3839843274366191e-05  -8.3773194762827440e-06  -2.8586188694436131e-05  -4.7263760815321264e-05  -6.3970097811637505e-05  -7.7279586224461542e-05  -8.4888628162579520e-05  -8.2970781423801995e-05  -6.7634377887512917e-05  -3.1327478155514816e-05  4.9299247724190836e-06  1.7723141350462500e-05  2.9706800783763535e-05  -9.0231753682795736e-05  -2.6858406563553768e-04  -4.6511127042263398e-04  -6.5171422003392138e-04  -8.0791988443612702e-04  -9.1925822446064522e-04  -9.7760206337667126e-04  -9.8152812190573199e-04  -9.3598001284708418e-04  -8.5107009596291252e-04  -7.4024672129153622e-04  -6.1821264983699577e-04  -4.9899117782811221e-04  -3.9442761165832803e-04  -3.1325185607639956e-04  -2.6067882387088159e-04  -2.3841966289393969e-04  -2.4494058726271754e-04  -2.7584342881531996e-04  -3.2432180764116057e-04  -3.8172525218156569e-04  -4.3831441060956434e-04  -4.8425926182066759e-04  -5.1076463526750465e-04  -5.1108481980719519e-04  -4.8109898696490293e-04  -4.1906794184739989e-04  -3.2450564185582527e-04  -1.9647514951571415e-04  -3.1861792366979930e-05  1.7540489685901939e-04  4.3442770895757801e-04  7.5631531244494809e-04  1.1525842560644254e-03  1.6330810524460601e-03  2.2061160389940833e-03  2.8788151031609904e-03  3.6555372437736371e-03  4.5361258650432968e-03  5.5144128758361863e-03  6.5782672702788727e-03  7.7084912118183567e-03  8.8782283905298690e-03  1.0053538551612198e-02  1.1195021326384906e-02  1.2260597918914427e-02  1.3208485349191706e-02  1.4000522168721984e-02  1.4604779694823801e-02  1.4997209123113099e-02  1.5162295688754428e-02  1.5092774853765475e-02  1.4788665026730282e-02  1.4255873891820649e-02  1.3504642212710230e-02  1.2548036725501137e-02  1.1400645784002284e-02  1.0077572076594262e-02  8.5937558661180035e-03  6.9636568198585677e-03  5.2011568133168446e-03  3.3200363130164176e-03  1.3302360224711788e-03  -7.4901483772935615e-04  -2.8918289647327411e-03  -5.0864839484460718e-03  -7.3126862496652508e-03  -9.5425753691954756e-03  -1.1748098625208644e-02  -1.3893195075108290e-02  -1.5938441422625647e-02  -1.7838922016663997e-02  -1.9546553346739718e-02  -2.1011277693719577e-02  -2.2183786959630761e-02  -2.3018397390811494e-02  -2.3477151101653652e-02  -2.3531197744361212e-02  -2.3166950159379082e-02  -2.2393265606881280e-02  -2.1217815152776362e-02  -1.9682444610742336e-02  -1.7846123454100939e-02  -1.5763185233100763e-02  -1.3507192237502973e-02  -1.1148602289680598e-02  -8.7567578893317476e-03  -6.3926630363505847e-03  -4.1060689796255986e-03  -1.9393135487183308e-03  9.2548113935683027e-05  1.9746451500462807e-03  3.6734955472128802e-03  5.1942951338139849e-03  6.5478563930301921e-03  7.7160792309617678e-03  8.6781997945500917e-03  9.4071100911320288e-03  9.8690826972657256e-03  1.0035513870126871e-02  9.8923769400818332e-03  9.4496900642728702e-03  8.7460918541219582e-03  7.8457947577773579e-03  6.8283454892327598e-03  5.7749688857704120e-03  4.7560244009656766e-03  3.8229908841901279e-03  3.0061800766897060e-03  2.3169359130081977e-03  1.7530632065854710e-03  1.3033833236475094e-03  9.5121195487553865e-04  6.7820940051608388e-04  4.6648496891181051e-04  2.9977717043607035e-04  1.6454168706169471e-04  5.0516507589957251e-05  -4.8934201492701379e-05  -1.3672792348264285e-04  -2.1210516442171759e-04  -2.7074535826332794e-04  -3.0484524357804216e-04  -3.0332590976539465e-04  -2.5335311733612947e-04  -1.4426425783710154e-04  9.8943973899111913e-07  2.5000021403636158e-05  -3.2294924678293698e-05  -2.9132397206415152e-04  -6.4936191831394170e-04  -1.0377873916645596e-03  -1.4038632562551219e-03  -1.7074276743758072e-03  -1.9204811562366438e-03  -2.0279066816126295e-03  -2.0278489038659821e-03  -1.9306409997420495e-03  -1.7562874747420517e-03  -1.5309123483061066e-03  -1.2828700248185116e-03  -1.0391720099007227e-03  -8.2268179666162644e-04  -6.5030241385190160e-04  -5.3210434416703725e-04  -4.7118917501205168e-04  -4.6405451894219985e-04  -5.0124591080694190e-04  -5.6822987808821071e-04  -6.4656199047010993e-04  -7.1545492629623635e-04  -7.5377818513194079e-04  -7.4229799066110171e-04  -6.6559363317657131e-04  -5.1295053470804854e-04  -2.7771269932388992e-04  4.4984643144563961e-05  4.6161271118244537e-04  9.8339220948203527e-04  1.6274532699792567e-03  2.4144143423899477e-03  3.3663179035740760e-03  4.5049484291304533e-03  5.8484297131361600e-03  7.4060963822830308e-03  9.1766456064797108e-03  1.1147989731736937e-02  1.3293458311157014e-02  1.5569235129518896e-02  1.7914084824978138e-02  2.0252064418896331e-02  2.2497578416360482e-02  2.4562233131827392e-02  2.6362581781381480e-02  2.7826952510772721e-02  2.8900435925261241e-02  2.9547406602750952e-02  2.9751701866614282e-02  2.9514800571908133e-02  2.8852683306248062e-02  2.7792044622469834e-02  2.6366438887185439e-02  2.4612791693403340e-02  2.2568531388298521e-02  2.0269452486492652e-02  1.7748312748161403e-02  1.5034095067226496e-02  1.2151847907940397e-02  9.1229550019890637e-03  5.9658665169187060e-03  2.6966480884061303e-03  -6.6602766646468956e-04  -4.1087863881403607e-03  -7.6232949113806316e-03  -1.1186982155841529e-02  -1.4773941577781668e-02  -1.8354966135629348e-02  -2.1890867514047122e-02  -2.5336010580446974e-02  -2.8635019711949674e-02  -3.1724814892281267e-02  -3.4534924904556112e-02  -3.6990319829858433e-02  -3.9014686445664387e-02  -4.0535209516832905e-02  -4.1487751427372162e-02  -4.1823298569909344e-02  -4.1512459618458543e-02  -4.0549129815061320e-02  -3.8957993434837079e-02  -3.6785093167667968e-02  -3.4102063404276718e-02  -3.1001016052513056e-02  -2.7580930921758527e-02  -2.3946944268628235e-02  -2.0198538501181477e-02  -1.6424110312325050e-02  -1.2697257854769821e-02  -9.0703290501599355e-03  -5.5869967082636347e-03  -2.2641425777473758e-03  9.1660333056979863e-04  3.9350659333362648e-03  6.7598842384017557e-03  9.3873988319209001e-03  1.1785919110776807e-02  1.3891584936055834e-02  1.5623091300502856e-02  1.6885875969575807e-02  1.7591855113911158e-02  1.7683661271002224e-02  1.7156819878061193e-02  1.6071853683260969e-02  1.4549446583760809e-02  1.2748969660974009e-02  1.0837928756964287e-02  8.9632092225954123e-03  7.2329941249491400e-03  5.7119276624205571e-03  4.4253834632909548e-03  3.3694091412391010e-03  2.5223099939421668e-03  1.8525390037245279e-03  1.3249924044760899e-03  9.0627007176040711e-04  5.6738277423069167e-04  2.8561662436066038e-04  4.5486951671559941e-05  -1.6100581620055726e-04  -3.3454009653325983e-04  -4.6891212421570059e-04  -5.5161838152949401e-04  -5.6487954058548622e-04  -4.8798391775006376e-04  -3.0311597668046937e-04  -8.3313881010936686e-06  2.9547216959234663e-05  -1.6896489358155957e-04  -6.1907322945649681e-04  -1.1993390785259906e-03  -1.8140389797116890e-03  -2.3845809254894467e-03  -2.8494024262631997e-03  -3.1661202652543269e-03  -3.3132167002479602e-03  -3.2902654112161151e-03  -3.1156566616578492e-03  -2.8221733063395552e-03  -2.4512265824312468e-03  -2.0468321795275835e-03  -1.6502688268951299e-03  -1.2959938521542092e-03  -1.0090044851150807e-03  -8.0353760590850349e-04  -6.8280780275720371e-04  -6.3943734797021294e-04  -6.5634533245319932e-04  -7.0806970339422153e-04  -7.6262239688827498e-04  -7.8408761082083319e-04  -7.3592950316100144e-04  -5.8454296008336379e-04  -3.0214908436482571e-04  1.3207555184205895e-04  7.3391270493772872e-04  1.5184310474900228e-03  2.5037044405827173e-03  3.7133919055114071e-03  5.1789858707729864e-03  6.9371334329675211e-03  9.0192310804997258e-03  1.1444147521941075e-02  1.4215282776483689e-02  1.7314986175387227e-02  2.0698335459144856e-02  2.4290079527964598e-02  2.7985940551454064e-02  3.1657714252513194e-02  3.5163487035904231e-02  3.8361083826936371e-02  4.1121629331688239e-02  4.3340732704249034e-02  4.4945481296487490e-02  4.5896797008192186e-02  4.6187633801322840e-02  4.5838116327918794e-02  4.4888954051912421e-02  4.3394390234248251e-02  4.1415613883825739e-02  3.9015243101756185e-02  3.6253142370748573e-02  3.3183590770695055e-02  2.9853654600123916e-02  2.6302540126279524e-02  2.2561686700369055e-02  1.8655388734468970e-02  1.4601765113078046e-02  1.0413986328101978e-02  6.1015689255998866e-03  1.6722572412564637e-03  -2.8691694862354174e-03  -7.5152366145759021e-03  -1.2250059598779155e-02  -1.7056756124711539e-02  -2.1911945887515202e-02  -2.6782445680833003e-02  -3.1625933110939052e-02  -3.6387347453918542e-02  -4.0999309008884086e-02  -4.5380977510377993e-02  -4.9439547518750918e-02  -5.3072330611927183e-02  -5.6171079193851947e-02  -5.8627839822375731e-02  -6.0342687085515670e-02  -6.1232202036583715e-02  -6.1238448298649689e-02  -6.0337258669840868e-02  -5.8543049889200713e-02  -5.5911426520814496e-02  -5.2534557012880810e-02  -4.8535674545850838e-02  -4.4058448673832074e-02  -3.9252698182502203e-02  -3.4263262101931778e-02  -2.9217740331548222e-02  -2.4218353991222241e-02  -1.9339206317580408e-02  -1.4620872349209590e-02  -1.0081504329284355e-02  -5.7278185159576177e-03  -1.5178745735449919e-03  2.5890566290169433e-03  6.5753808734562106e-03  1.0415200462288172e-02  1.4059077193112012e-02  1.7400551406475062e-02  2.0290159200014157e-02  2.2551816037615930e-02  2.4014130990222999e-02  2.4553213481389002e-02  2.4132539902928647e-02  2.2825392886072680e-02  2.0808165114375377e-02  1.8324839297818564e-02  1.5635940439023860e-02  1.2970940736578871e-02  1.0498388664569794e-02  8.3180132843117087e-03  6.4692072480578532e-03  4.9462304584546053e-03  3.7157585471958763e-03  2.7312312178774819e-03  1.9423637536393130e-03  1.3027940851272843e-03  7.7454948622763284e-04  3.3027169573591830e-04  -4.5899056698471217e-05  -3.5855473201555063e-04  -6.0178522860784693e-04  -7.6031830456777720e-04  -8.1099043480253863e-04  -7.2499707377770705e-04  -4.7146213033061047e-04  -1.8654705542785878e-05  3.2848068589666622e-05  -3.7808722542164954e-04  -1.0759159063411686e-03  -1.9217827737645053e-03  -2.7930725184741089e-03  -3.5841772055101532e-03  -4.2113313418283586e-03  -4.6182744939933006e-03  -4.7793046913507213e-03  -4.6990554089324944e-03  -4.4082863125040070e-03  -3.9566601650824693e-03  -3.4040446471613611e-03  -2.8119711419700784e-03  -2.2364318457424280e-03  -1.7226534325283692e-03  -1.3019249788471725e-03  -9.9011856633154059e-04  -7.8743156294563304e-04  -6.7893181653366124e-04  -6.3568922995278169e-04  -6.1654879559492205e-04  -5.7091593086709518e-04  -4.4270764764841496e-04  -1.7528285584405572e-04  2.8332797225953427e-04  9.7706558129967273e-04  1.9416504610056775e-03  3.2061566272416800e-03  4.7986542925184776e-03  6.7548572571872259e-03  9.1178484236787635e-03  1.1929061164394912e-02  1.5220872031635404e-02  1.9006678077931143e-02  2.3267179871546927e-02  2.7941245014469471e-02  3.2922243238210719e-02  3.8059302967519873e-02  4.3166518492167461e-02  4.8040130391004437e-02  5.2479812101339320e-02  5.6309387273948866e-02  5.9392775272405177e-02  6.1642718528134487e-02  6.3021874988964915e-02  6.3537631835911573e-02  6.3232854962784857e-02  6.2174920104114684e-02  6.0445019990948021e-02  5.8129050135778494e-02  5.5310700727803315e-02  5.2066842762547104e-02  4.8464924898627075e-02  4.4561933018121377e-02  4.0404431654426150e-02  3.6029272376886606e-02  3.1464656770455832e-02  2.6731349693120347e-02  2.1843927172997400e-02  1.6812017093660030e-02  1.1641507754052434e-02  6.3358027096586007e-03  8.9670029684751440e-04  -4.6731235134810714e-03  -1.0368983518315021e-02  -1.6184965483316036e-02  -2.2109157558288389e-02  -2.8121997634574531e-02  -3.4194546788142509e-02  -4.0285239567817974e-02  -4.6338236952438251e-02  -5.2280805385720545e-02  -5.8022372776330294e-02  -6.3453975797859274e-02  -6.8449813493319037e-02  -7.2870625205689737e-02  -7.6569805291483453e-02  -7.9402075137141315e-02  -8.1234771992002144e-02  -8.1960741446646182e-02  -8.1511147281459848e-02  -7.9866788155332255e-02  -7.7065435405274815e-02  -7.3203523308577614e-02  -6.8429687831826166e-02  -6.2932640433640788e-02  -5.6923603614830010e-02  -5.0615548721243291e-02  -4.4204060813566190e-02  -3.7851227948396689e-02  -3.1675371915977656e-02  -2.5746975302244377e-02  -2.0090755995275454e-02  -1.4689375905589894e-02  -9.5086516211054222e-03  -4.4880077336756927e-03  4.5982265896060259e-04  5.3712139082622489e-03  1.0224833630975486e-02  1.4954581003019113e-02  1.9417359995201458e-02  2.3396763419409373e-02  2.6631125012780223e-02  2.8860456525942435e-02  2.9889879577006142e-02  2.9648609169890882e-02  2.8221814829421009e-02  2.5839560941275645e-02  2.2824949105662823e-02  1.9522096497331935e-02  1.6231267629301056e-02  1.3170327530455619e-02  1.0465707180290032e-02  8.1652212776168482e-03  6.2597305947538120e-03  4.7057254378233705e-03  3.4447831359174343e-03  2.4166819745649604e-03  1.5684406947866745e-03  8.5965889738159862e-04  2.6457845839838898e-04  -2.2761765810540248e-04  -6.1371159892705700e-04  -8.7785336385025347e-04  -9.9302072745519618e-04  -9.2247948339489033e-04  -6.2087491354266328e-04  -2.8638674999790311e-05  3.5988618327596842e-05  -6.5782359028834531e-04  -1.6653666014752248e-03  -2.8248313906434788e-03  -3.9834540813738347e-03  -5.0060839897655349e-03  -5.7859370468068541e-03  -6.2545033370173574e-03  -6.3860533292101141e-03  -6.1962238048213639e-03  -5.7346108928990813e-03  -5.0735013027503701e-03  -4.2952441963165292e-03  -3.4806631915245616e-03  -2.7000414893824857e-03  -2.0071310752274481e-03  -1.4358574481882454e-03  -9.9905557071659377e-04  -6.8845427142268144e-04  -4.7544353727031519e-04  -3.1259962557505090e-04  -1.3621645796547952e-04  1.2973011247931587e-04  5.6757427921184727e-04  1.2589430016455118e-03  2.2784993409839297e-03  3.6885034358186226e-03  5.5396608643708527e-03  7.8796698533822544e-03  1.0756270730551781e-02  1.4215727209587090e-02  1.8300285489267668e-02  2.3034108807154469e-02  2.8402650692631821e-02  3.4337282973197165e-02  4.0706344683900615e-02  4.7315380805307491e-02  5.3920511336735137e-02  6.02530050135