<?xml version="1.0"?>
<VTKFile type="UnstructuredGrid"  version="0.1"  >
<UnstructuredGrid>
<Piece  NumberOfPoints="1089" NumberOfCells="1024">
<Points>
<DataArray  type="Float64"  NumberOfComponents="3"  format="ascii">0 0 0  0.03125 0 0  0.0625 0 0  0.09375 0 0  0.125 0 0  0.15625 0 0  0.1875 0 0  0.21875 0 0  0.25 0 0  0.28125 0 0  0.3125 0 0  0.34375 0 0  0.375 0 0  0.40625 0 0  0.4375 0 0  0.46875 0 0  0.5 0 0  0.53125 0 0  0.5625 0 0  0.59375 0 0  0.625 0 0  0.65625 0 0  0.6875 0 0  0.71875 0 0  0.75 0 0  0.78125 0 0  0.8125 0 0  0.84375 0 0  0.875 0 0  0.90625 0 0  0.9375 0 0  0.96875 0 0  1 0 0  0 0.03125 0  0.03125 0.03125 0  0.0625 0.03125 0  0.09375 0.03125 0  0.125 0.03125 0  0.15625 0.03125 0  0.1875 0.03125 0  0.21875 0.03125 0  0.25 0.03125 0  0.28125 0.03125 0  0.3125 0.03125 0  0.34375 0.03125 0  0.375 0.03125 0  0.40625 0.03125 0  0.4375 0.03125 0  0.46875 0.03125 0  0.5 0.03125 0  0.53125 0.03125 0  0.5625 0.03125 0  0.59375 0.03125 0  0.625 0.03125 0  0.65625 0.03125 0  0.6875 0.03125 0  0.71875 0.03125 0  0.75 0.03125 0  0.78125 0.03125 0  0.8125 0.03125 0  0.84375 0.03125 0  0.875 0.03125 0  0.90625 0.03125 0  0.9375 0.03125 0  0.96875 0.03125 0  1 0.03125 0  0 0.0625 0  0.03125 0.0625 0  0.0625 0.0625 0  0.09375 0.0625 0  0.125 0.0625 0  0.15625 0.0625 0  0.1875 0.0625 0  0.21875 0.0625 0  0.25 0.0625 0  0.28125 0.0625 0  0.3125 0.0625 0  0.34375 0.0625 0  0.375 0.0625 0  0.40625 0.0625 0  0.4375 0.0625 0  0.46875 0.0625 0  0.5 0.0625 0  0.53125 0.0625 0  0.5625 0.0625 0  0.59375 0.0625 0  0.625 0.0625 0  0.65625 0.0625 0  0.6875 0.0625 0  0.71875 0.0625 0  0.75 0.0625 0  0.78125 0.0625 0  0.8125 0.0625 0  0.84375 0.0625 0  0.875 0.0625 0  0.90625 0.0625 0  0.9375 0.0625 0  0.96875 0.0625 0  1 0.0625 0  0 0.09375 0  0.03125 0.09375 0  0.0625 0.09375 0  0.09375 0.09375 0  0.125 0.09375 0  0.15625 0.09375 0  0.1875 0.09375 0  0.21875 0.09375 0  0.25 0.09375 0  0.28125 0.09375 0  0.3125 0.09375 0  0.34375 0.09375 0  0.375 0.09375 0  0.40625 0.09375 0  0.4375 0.09375 0  0.46875 0.09375 0  0.5 0.09375 0  0.53125 0.09375 0  0.5625 0.09375 0  0.59375 0.09375 0  0.625 0.09375 0  0.65625 0.09375 0  0.6875 0.09375 0  0.71875 0.09375 0  0.75 0.09375 0  0.78125 0.09375 0  0.8125 0.09375 0  0.84375 0.09375 0  0.875 0.09375 0  0.90625 0.09375 0  0.9375 0.09375 0  0.96875 0.09375 0  1 0.09375 0  0 0.125 0  0.03125 0.125 0  0.0625 0.125 0  0.09375 0.125 0  0.125 0.125 0  0.15625 0.125 0  0.1875 0.125 0  0.21875 0.125 0  0.25 0.125 0  0.28125 0.125 0  0.3125 0.125 0  0.34375 0.125 0  0.375 0.125 0  0.40625 0.125 0  0.4375 0.125 0  0.46875 0.125 0  0.5 0.125 0  0.53125 0.125 0  0.5625 0.125 0  0.59375 0.125 0  0.625 0.125 0  0.65625 0.125 0  0.6875 0.125 0  0.71875 0.125 0  0.75 0.125 0  0.78125 0.125 0  0.8125 0.125 0  0.84375 0.125 0  0.875 0.125 0  0.90625 0.125 0  0.9375 0.125 0  0.96875 0.125 0  1 0.125 0  0 0.15625 0  0.03125 0.15625 0  0.0625 0.15625 0  0.09375 0.15625 0  0.125 0.15625 0  0.15625 0.15625 0  0.1875 0.15625 0  0.21875 0.15625 0  0.25 0.15625 0  0.28125 0.15625 0  0.3125 0.15625 0  0.34375 0.15625 0  0.375 0.15625 0  0.40625 0.15625 0  0.4375 0.15625 0  0.46875 0.15625 0  0.5 0.15625 0  0.53125 0.15625 0  0.5625 0.15625 0  0.59375 0.15625 0  0.625 0.15625 0  0.65625 0.15625 0  0.6875 0.15625 0  0.71875 0.15625 0  0.75 0.15625 0  0.78125 0.15625 0  0.8125 0.15625 0  0.84375 0.15625 0  0.875 0.15625 0  0.90625 0.15625 0  0.9375 0.15625 0  0.96875 0.15625 0  1 0.15625 0  0 0.1875 0  0.03125 0.1875 0  0.0625 0.1875 0  0.09375 0.1875 0  0.125 0.1875 0  0.15625 0.1875 0  0.1875 0.1875 0  0.21875 0.1875 0  0.25 0.1875 0  0.28125 0.1875 0  0.3125 0.1875 0  0.34375 0.1875 0  0.375 0.1875 0  0.40625 0.1875 0  0.4375 0.1875 0  0.46875 0.1875 0  0.5 0.1875 0  0.53125 0.1875 0  0.5625 0.1875 0  0.59375 0.1875 0  0.625 0.1875 0  0.65625 0.1875 0  0.6875 0.1875 0  0.71875 0.1875 0  0.75 0.1875 0  0.78125 0.1875 0  0.8125 0.1875 0  0.84375 0.1875 0  0.875 0.1875 0  0.90625 0.1875 0  0.9375 0.1875 0  0.96875 0.1875 0  1 0.1875 0  0 0.21875 0  0.03125 0.21875 0  0.0625 0.21875 0  0.09375 0.21875 0  0.125 0.21875 0  0.15625 0.21875 0  0.1875 0.21875 0  0.21875 0.21875 0  0.25 0.21875 0  0.28125 0.21875 0  0.3125 0.21875 0  0.34375 0.21875 0  0.375 0.21875 0  0.40625 0.21875 0  0.4375 0.21875 0  0.46875 0.21875 0  0.5 0.21875 0  0.53125 0.21875 0  0.5625 0.21875 0  0.59375 0.21875 0  0.625 0.21875 0  0.65625 0.21875 0  0.6875 0.21875 0  0.71875 0.21875 0  0.75 0.21875 0  0.78125 0.21875 0  0.8125 0.21875 0  0.84375 0.21875 0  0.875 0.21875 0  0.90625 0.21875 0  0.9375 0.21875 0  0.96875 0.21875 0  1 0.21875 0  0 0.25 0  0.03125 0.25 0  0.0625 0.25 0  0.09375 0.25 0  0.125 0.25 0  0.15625 0.25 0  0.1875 0.25 0  0.21875 0.25 0  0.25 0.25 0  0.28125 0.25 0  0.3125 0.25 0  0.34375 0.25 0  0.375 0.25 0  0.40625 0.25 0  0.4375 0.25 0  0.46875 0.25 0  0.5 0.25 0  0.53125 0.25 0  0.5625 0.25 0  0.59375 0.25 0  0.625 0.25 0  0.65625 0.25 0  0.6875 0.25 0  0.71875 0.25 0  0.75 0.25 0  0.78125 0.25 0  0.8125 0.25 0  0.84375 0.25 0  0.875 0.25 0  0.90625 0.25 0  0.9375 0.25 0  0.96875 0.25 0  1 0.25 0  0 0.28125 0  0.03125 0.28125 0  0.0625 0.28125 0  0.09375 0.28125 0  0.125 0.28125 0  0.15625 0.28125 0  0.1875 0.28125 0  0.21875 0.28125 0  0.25 0.28125 0  0.28125 0.28125 0  0.3125 0.28125 0  0.34375 0.28125 0  0.375 0.28125 0  0.40625 0.28125 0  0.4375 0.28125 0  0.46875 0.28125 0  0.5 0.28125 0  0.53125 0.28125 0  0.5625 0.28125 0  0.59375 0.28125 0  0.625 0.28125 0  0.65625 0.28125 0  0.6875 0.28125 0  0.71875 0.28125 0  0.75 0.28125 0  0.78125 0.28125 0  0.8125 0.28125 0  0.84375 0.28125 0  0.875 0.28125 0  0.90625 0.28125 0  0.9375 0.28125 0  0.96875 0.28125 0  1 0.28125 0  0 0.3125 0  0.03125 0.3125 0  0.0625 0.3125 0  0.09375 0.3125 0  0.125 0.3125 0  0.15625 0.3125 0  0.1875 0.3125 0  0.21875 0.3125 0  0.25 0.3125 0  0.28125 0.3125 0  0.3125 0.3125 0  0.34375 0.3125 0  0.375 0.3125 0  0.40625 0.3125 0  0.4375 0.3125 0  0.46875 0.3125 0  0.5 0.3125 0  0.53125 0.3125 0  0.5625 0.3125 0  0.59375 0.3125 0  0.625 0.3125 0  0.65625 0.3125 0  0.6875 0.3125 0  0.71875 0.3125 0  0.75 0.3125 0  0.78125 0.3125 0  0.8125 0.3125 0  0.84375 0.3125 0  0.875 0.3125 0  0.90625 0.3125 0  0.9375 0.3125 0  0.96875 0.3125 0  1 0.3125 0  0 0.34375 0  0.03125 0.34375 0  0.0625 0.34375 0  0.09375 0.34375 0  0.125 0.34375 0  0.15625 0.34375 0  0.1875 0.34375 0  0.21875 0.34375 0  0.25 0.34375 0  0.28125 0.34375 0  0.3125 0.34375 0  0.34375 0.34375 0  0.375 0.34375 0  0.40625 0.34375 0  0.4375 0.34375 0  0.46875 0.34375 0  0.5 0.34375 0  0.53125 0.34375 0  0.5625 0.34375 0  0.59375 0.34375 0  0.625 0.34375 0  0.65625 0.34375 0  0.6875 0.34375 0  0.71875 0.34375 0  0.75 0.34375 0  0.78125 0.34375 0  0.8125 0.34375 0  0.84375 0.34375 0  0.875 0.34375 0  0.90625 0.34375 0  0.9375 0.34375 0  0.96875 0.34375 0  1 0.34375 0  0 0.375 0  0.03125 0.375 0  0.0625 0.375 0  0.09375 0.375 0  0.125 0.375 0  0.15625 0.375 0  0.1875 0.375 0  0.21875 0.375 0  0.25 0.375 0  0.28125 0.375 0  0.3125 0.375 0  0.34375 0.375 0  0.375 0.375 0  0.40625 0.375 0  0.4375 0.375 0  0.46875 0.375 0  0.5 0.375 0  0.53125 0.375 0  0.5625 0.375 0  0.59375 0.375 0  0.625 0.375 0  0.65625 0.375 0  0.6875 0.375 0  0.71875 0.375 0  0.75 0.375 0  0.78125 0.375 0  0.8125 0.375 0  0.84375 0.375 0  0.875 0.375 0  0.90625 0.375 0  0.9375 0.375 0  0.96875 0.375 0  1 0.375 0  0 0.40625 0  0.03125 0.40625 0  0.0625 0.40625 0  0.09375 0.40625 0  0.125 0.40625 0  0.15625 0.40625 0  0.1875 0.40625 0  0.21875 0.40625 0  0.25 0.40625 0  0.28125 0.40625 0  0.3125 0.40625 0  0.34375 0.40625 0  0.375 0.40625 0  0.40625 0.40625 0  0.4375 0.40625 0  0.46875 0.40625 0  0.5 0.40625 0  0.53125 0.40625 0  0.5625 0.40625 0  0.59375 0.40625 0  0.625 0.40625 0  0.65625 0.40625 0  0.6875 0.40625 0  0.71875 0.40625 0  0.75 0.40625 0  0.78125 0.40625 0  0.8125 0.40625 0  0.84375 0.40625 0  0.875 0.40625 0  0.90625 0.40625 0  0.9375 0.40625 0  0.96875 0.40625 0  1 0.40625 0  0 0.4375 0  0.03125 0.4375 0  0.0625 0.4375 0  0.09375 0.4375 0  0.125 0.4375 0  0.15625 0.4375 0  0.1875 0.4375 0  0.21875 0.4375 0  0.25 0.4375 0  0.28125 0.4375 0  0.3125 0.4375 0  0.34375 0.4375 0  0.375 0.4375 0  0.40625 0.4375 0  0.4375 0.4375 0  0.46875 0.4375 0  0.5 0.4375 0  0.53125 0.4375 0  0.5625 0.4375 0  0.59375 0.4375 0  0.625 0.4375 0  0.65625 0.4375 0  0.6875 0.4375 0  0.71875 0.4375 0  0.75 0.4375 0  0.78125 0.4375 0  0.8125 0.4375 0  0.84375 0.4375 0  0.875 0.4375 0  0.90625 0.4375 0  0.9375 0.4375 0  0.96875 0.4375 0  1 0.4375 0  0 0.46875 0  0.03125 0.46875 0  0.0625 0.46875 0  0.09375 0.46875 0  0.125 0.46875 0  0.15625 0.46875 0  0.1875 0.46875 0  0.21875 0.46875 0  0.25 0.46875 0  0.28125 0.46875 0  0.3125 0.46875 0  0.34375 0.46875 0  0.375 0.46875 0  0.40625 0.46875 0  0.4375 0.46875 0  0.46875 0.46875 0  0.5 0.46875 0  0.53125 0.46875 0  0.5625 0.46875 0  0.59375 0.46875 0  0.625 0.46875 0  0.65625 0.46875 0  0.6875 0.46875 0  0.71875 0.46875 0  0.75 0.46875 0  0.78125 0.46875 0  0.8125 0.46875 0  0.84375 0.46875 0  0.875 0.46875 0  0.90625 0.46875 0  0.9375 0.46875 0  0.96875 0.46875 0  1 0.46875 0  0 0.5 0  0.03125 0.5 0  0.0625 0.5 0  0.09375 0.5 0  0.125 0.5 0  0.15625 0.5 0  0.1875 0.5 0  0.21875 0.5 0  0.25 0.5 0  0.28125 0.5 0  0.3125 0.5 0  0.34375 0.5 0  0.375 0.5 0  0.40625 0.5 0  0.4375 0.5 0  0.46875 0.5 0  0.5 0.5 0  0.53125 0.5 0  0.5625 0.5 0  0.59375 0.5 0  0.625 0.5 0  0.65625 0.5 0  0.6875 0.5 0  0.71875 0.5 0  0.75 0.5 0  0.78125 0.5 0  0.8125 0.5 0  0.84375 0.5 0  0.875 0.5 0  0.90625 0.5 0  0.9375 0.5 0  0.96875 0.5 0  1 0.5 0  0 0.53125 0  0.03125 0.53125 0  0.0625 0.53125 0  0.09375 0.53125 0  0.125 0.53125 0  0.15625 0.53125 0  0.1875 0.53125 0  0.21875 0.53125 0  0.25 0.53125 0  0.28125 0.53125 0  0.3125 0.53125 0  0.34375 0.53125 0  0.375 0.53125 0  0.40625 0.53125 0  0.4375 0.53125 0  0.46875 0.53125 0  0.5 0.53125 0  0.53125 0.53125 0  0.5625 0.53125 0  0.59375 0.53125 0  0.625 0.53125 0  0.65625 0.53125 0  0.6875 0.53125 0  0.71875 0.53125 0  0.75 0.53125 0  0.78125 0.531
[...]
<PointData  Scalars="u_sol"> 
<DataArray  type="Float64"  Name="u_sol"  format="ascii">3.6860308119671888e-06  -1.6540927940252400e-04  1.0466435069961006e-04  8.1022973779602445e-04  1.0073899903599946e-03  1.5720022729657946e-03  3.3517963344151412e-03  -1.2293677088109653e-03  2.5171010832617685e-03  1.7437155702911242e-02  2.9037441592345444e-02  3.7401107024837794e-02  3.6839978954021343e-02  2.3573099369110312e-02  -1.7599105217174906e-04  -2.7325755567828253e-02  -4.9725255227477679e-02  -6.0290326291013156e-02  -5.3740885027917427e-02  -2.9604907131874303e-02  7.4096824951629028e-03  4.6434294575645352e-02  7.2250357954759828e-02  7.3220907425781329e-02  5.0773191191679251e-02  2.6217231505735839e-02  1.0077026947527865e-02  1.6010100971234503e-06  -1.8296710666212026e-03  -1.6475575781684632e-03  -7.8206096494946875e-04  -2.1451861993657565e-04  2.8261689096926672e-05  -1.6330766722255993e-04  6.9939857143210048e-04  4.5290328868434915e-03  9.1675982316253429e-03  1.3094198983230899e-02  1.3963087257661693e-02  1.4231140138426386e-02  2.1212420967900582e-02  1.9475315711743553e-02  -5.8437279021282896e-03  -6.1396312870124495e-02  -1.3956995896065785e-01  -2.2209850179177065e-01  -2.9228869798212792e-01  -3.4172851106928609e-01  -3.6869275972054028e-01  -3.7451633013234226e-01  -3.6079962569235141e-01  -3.2884941277534224e-01  -2.7838861183107200e-01  -2.0999196716453652e-01  -1.2790226464491092e-01  -4.2942547313045400e-02  2.8110780571967319e-02  7.0317955701713161e-02  7.7402629904779863e-02  6.3562197454552299e-02  4.2135615445795201e-02  1.9452715791363793e-02  6.9907995250599398e-03  1.2008692599082089e-03  -3.8146862768946685e-04  5.2051927247206900e-05  -5.2672788347149404e-04  2.4088813269179422e-03  9.2652067036003739e-03  1.4887618983042084e-02  1.4506259273358147e-02  1.4263816069038666e-02  1.1839232318711895e-02  -1.5189218720944052e-02  -8.7896300549221165e-02  -1.9343026542943326e-01  -2.9344707085846888e-01  -3.6985689036567182e-01  -4.1938182161370696e-01  -4.4827500598586395e-01  -4.6354094392522294e-01  -4.7036122249795859e-01  -4.7121124376587442e-01  -4.6684164725484723e-01  -4.5606618271590105e-01  -4.3644375910030653e-01  -4.0313146454248455e-01  -3.4957338362913676e-01  -2.7129652246017161e-01  -1.7409439437120935e-01  -7.9267328098862777e-02  -1.2588549564725179e-02  1.7283203361606582e-02  2.8929815663207695e-02  2.9286403963518792e-02  1.6199746009286382e-02  6.9447517595071905e-03  1.8579226633902283e-03  -3.5533497088630983e-04  -1.1859944755743619e-03  5.4097247243074294e-03  1.5447667347873374e-02  1.5086884339173417e-02  1.0249531158934689e-02  -1.2882867666905357e-03  -5.2472254148608635e-02  -1.5711866387507822e-01  -2.7220432493024754e-01  -3.6012723899759569e-01  -4.1292847248125336e-01  -4.3809149935349673e-01  -4.4819144312741871e-01  -4.5154941591137587e-01  -4.5201324932692416e-01  -4.5088421366221054e-01  -4.4891971384263146e-01  -4.4698594481949788e-01  -4.4635749375187989e-01  -4.4742131223042969e-01  -4.4837519292134542e-01  -4.4200763548027594e-01  -4.1377940105437938e-01  -3.4682978045370916e-01  -2.3828741405843162e-01  -1.1631759726600324e-01  -2.9492115287533104e-02  2.0554837759256851e-03  1.2059193831969179e-02  1.7301447454163552e-02  9.3071384374417629e-03  2.3574934035801021e-03  -4.1691978050282434e-04  -1.9936719353968167e-03  1.0055466100901753e-02  1.6389292354834901e-02  7.5606571168830182e-03  -1.0222795670173078e-02  -7.4107251370297153e-02  -1.8866603605124846e-01  -2.9941415029479213e-01  -3.7163267488279261e-01  -4.0345552957415937e-01  -4.0966089537071432e-01  -4.0552629877021468e-01  -3.9943192592630600e-01  -3.9426604172903190e-01  -3.9056980838012900e-01  -3.8797750798194075e-01  -3.8605933407767024e-01  -3.8452342320965371e-01  -3.8366908800502636e-01  -3.8532550083858447e-01  -3.9230815659093266e-01  -4.0674136388737442e-01  -4.2443685819271465e-01  -4.2740329235768582e-01  -3.8555868538434457e-01  -2.8002584811746284e-01  -1.3690057079362408e-01  -2.8503011211884262e-02  3.2891484976960428e-03  6.9139366183810580e-03  9.5136530173751815e-03  4.0622285129861060e-03  -7.2720703441060957e-04  -2.1541850831128442e-03  1.2001442235491499e-02  8.5262800268668185e-03  -1.2490877838511698e-02  -7.4950683446497773e-02  -1.8775044464673443e-01  -2.9377661855232845e-01  -3.5508371692783897e-01  -3.7307341362665136e-01  -3.6871834908081141e-01  -3.6003836436737929e-01  -3.5481576470233045e-01  -3.5420144814848398e-01  -3.5662951308987950e-01  -3.5988118907959749e-01  -3.6227406528586498e-01  -3.6295802732284493e-01  -3.6193662680895805e-01  -3.5962339589707304e-01  -3.5615687711152866e-01  -3.5242842148517439e-01  -3.5150771673931286e-01  -3.5968898371489616e-01  -3.8109658731290214e-01  -4.0255135894561961e-01  -3.8502836756208797e-01  -2.9108233821863461e-01  -1.3839348611755958e-01  -1.9195935578191187e-02  5.5631080541672061e-03  5.3214812715197566e-03  1.5056600339659423e-03  -4.5705449394942865e-04  -3.2575661915746549e-04  7.9612504541612186e-03  -8.4264436394711692e-03  -6.1421262633169868e-02  -1.6393990312465195e-01  -2.6766622864437756e-01  -3.2561374794181863e-01  -3.3787105138298845e-01  -3.2971047358131494e-01  -3.2178519493746199e-01  -3.2059464319303183e-01  -3.2446524448082636e-01  -3.2940139583390549e-01  -3.3279871720076198e-01  -3.3424350447414114e-01  -3.3455881004616406e-01  -3.3464650511934713e-01  -3.3495748760104432e-01  -3.3552786660639866e-01  -3.3627285215193453e-01  -3.3629126773387563e-01  -3.3378019164236167e-01  -3.2823887242015437e-01  -3.2614879870075691e-01  -3.4026957105541122e-01  -3.6710354401147499e-01  -3.6247418900246314e-01  -2.7315115087173852e-01  -1.1492473650837517e-01  -2.5315690096911719e-03  2.8828733512302747e-03  4.3822514237413946e-03  -3.6245212742150323e-04  2.5748289504541003e-03  -1.5979778527863610e-03  -4.1402408276722619e-02  -1.2636340208478467e-01  -2.2689639692309957e-01  -2.8922595592419009e-01  -3.0293653885358740e-01  -2.9439609468732114e-01  -2.8763550092310047e-01  -2.8894070422582740e-01  -2.9411999961273938e-01  -2.9796894823606274e-01  -2.9909588603795373e-01  -2.9900098878625148e-01  -2.9905719199084657e-01  -2.9950320992093982e-01  -3.0000603718153906e-01  -3.0037827685408158e-01  -3.0080572620861290e-01  -3.0175972067933921e-01  -3.0395375132005403e-01  -3.0749201552979738e-01  -3.0984438625676541e-01  -3.0610109222691451e-01  -2.9877737424850020e-01  -3.0619237958633305e-01  -3.3349632631209186e-01  -3.2991681225909647e-01  -2.3130542000080567e-01  -7.0570878807295914e-02  1.2070562837358282e-02  -9.1339285020869106e-04  -2.1068119603707134e-04  4.6325090790555823e-03  -1.8091204609889541e-02  -8.3203702027278725e-02  -1.7440442563244304e-01  -2.4541741131803999e-01  -2.6788361480693479e-01  -2.6151548306545680e-01  -2.5478075773894804e-01  -2.5665628381766470e-01  -2.6187016763478460e-01  -2.6466627397799269e-01  -2.6494343421430894e-01  -2.6539510900148239e-01  -2.6689304963028138e-01  -2.6872397042192181e-01  -2.7023302674036381e-01  -2.7131526089581270e-01  -2.7207683792389320e-01  -2.7256081191094322e-01  -2.7270285036110087e-01  -2.7260738955767666e-01  -2.7318990438902963e-01  -2.7624058048016054e-01  -2.8094836062368073e-01  -2.7989595019850960e-01  -2.7099744217836891e-01  -2.7626049948941500e-01  -3.0327526529997917e-01  -2.8797928721764676e-01  -1.6633383100143159e-01  -1.7337554836589438e-02  4.8299376524996076e-03  -1.8356927697763938e-03  5.6344993662940318e-03  -3.7110029690558467e-02  -1.1424478663656969e-01  -1.9054664138711186e-01  -2.2883306952149562e-01  -2.2948113645471924e-01  -2.2234207794532940e-01  -2.2326016943980428e-01  -2.2844086920560341e-01  -2.3121909822844039e-01  -2.3162761593548054e-01  -2.3286276082295995e-01  -2.3520742460841465e-01  -2.3730719216014978e-01  -2.3878040847891899e-01  -2.3993111651859206e-01  -2.4102218346440082e-01  -2.4213654947470303e-01  -2.4331880688697177e-01  -2.4456946096920737e-01  -2.4560925250541424e-01  -2.4578591529101784e-01  -2.4520340141903738e-01  -2.4657912941431762e-01  -2.5132900278620635e-01  -2.5087747475117439e-01  -2.4145562835666867e-01  -2.4979910971263872e-01  -2.7381336243324828e-01  -2.2903256197100713e-01  -8.4016305120676205e-02  1.9574164568621766e-02  -3.9288725053175369e-03  5.8330237897864451e-03  -4.9682699737978349e-02  -1.2437438047324222e-01  -1.7896125220705583e-01  -1.9508078354510011e-01  -1.9023946540348205e-01  -1.8908129844929544e-01  -1.9400298135358751e-01  -1.9769979601824705e-01  -1.9865395806045943e-01  -2.0020865604353699e-01  -2.0283571453537347e-01  -2.0486101905766305e-01  -2.0623291958973716e-01  -2.0752854037671556e-01  -2.0888671376445400e-01  -2.1021913424395658e-01  -2.1148537679342785e-01  -2.1270333906382785e-01  -2.1396914643082382e-01  -2.1548957735506022e-01  -2.1725385107256201e-01  -2.1821822098109261e-01  -2.1743501861265691e-01  -2.1797594725604247e-01  -2.2222604867240087e-01  -2.1976540499007982e-01  -2.1107991304477591e-01  -2.2699805415514851e-01  -2.3628958451005078e-01  -1.4092966104433294e-01  -9.1876914379421908e-03  2.3442805969937897e-03  5.4896547365082919e-03  -5.1839126543853593e-02  -1.1552098969929456e-01  -1.5152255041461973e-01  -1.5733174589416990e-01  -1.5495617527768840e-01  -1.5854998445094393e-01  -1.6356764049215960e-01  -1.6566917830549271e-01  -1.6726698407668369e-01  -1.6998255213956817e-01  -1.7219202026179631e-01  -1.7371727965400757e-01  -1.7536196037699772e-01  -1.7711743519023737e-01  -1.7879583255618894e-01  -1.8036704021768898e-01  -1.8187121400230535e-01  -1.8332236152821624e-01  -1.8467079273778514e-01  -1.8586955714339903e-01  -1.8718006768208079e-01  -1.8900602277867687e-01  -1.9020070671548431e-01  -1.8922353205682713e-01  -1.8999298386042468e-01  -1.9330547168655321e-01  -1.8659364671380083e-01  -1.8315815205450287e-01  -2.0477759410844745e-01  -1.7056294540498287e-01  -4.2343245207238325e-02  1.4165880620286063e-02  5.1626292387992869e-03  -4.5062266043684684e-02  -9.5103657272923497e-02  -1.1844868434435221e-01  -1.2147068327298899e-01  -1.2290988805816695e-01  -1.2832552149836587e-01  -1.3229866286978809e-01  -1.3426582724897304e-01  -1.3683528270598186e-01  -1.3943453698023059e-01  -1.4122054563657568e-01  -1.4304506172833639e-01  -1.4498531216625521e-01  -1.4676028796543497e-01  -1.4842827050432439e-01  -1.5009148712076048e-01  -1.5178203920797972e-01  -1.5349941033403916e-01  -1.5525003670958282e-01  -1.5694671958783804e-01  -1.5833873942917492e-01  -1.5959328652898375e-01  -1.6138389158753894e-01  -1.6220825792306764e-01  -1.6087616758231801e-01  -1.6274237995997018e-01  -1.6281522008622140e-01  -1.5260218883815385e-01  -1.6163219898644465e-01  -1.6404876593836523e-01  -6.1206845925784716e-02  2.0717465695308683e-02  4.9176412834498395e-03  -3.3046061658648540e-02  -6.9928996113648029e-02  -8.5487284288475421e-02  -8.8751207303299259e-02  -9.2632413365128077e-02  -9.8032948345383203e-02  -1.0131527120754932e-01  -1.0371902056506896e-01  -1.0652052464081899e-01  -1.0873894816529024e-01  -1.1061413148573483e-01  -1.1263519146358829e-01  -1.1449923165897045e-01  -1.1626360206664421e-01  -1.1807358805084334e-01  -1.1992397693569677e-01  -1.2179826743375695e-01  -1.2370307908795625e-01  -1.2563063556740431e-01  -1.2761410911731555e-01  -1.2961066591947820e-01  -1.3122447138772023e-01  -1.3262906379284839e-01  -1.3445497875486653e-01  -1.3435750957890480e-01  -1.3341876610895365e-01  -1.3581443488794478e-01  -1.2901019303783517e-01  -1.2388435417405719e-01  -1.3790299955299354e-01  -7.0891669474408336e-02  1.9301320634478179e-02  4.7002935233056500e-03  -1.8916913474112011e-02  -4.4145388399573916e-02  -5.4728592893224397e-02  -5.8719496051433152e-02  -6.3377892057438753e-02  -6.8075516638662167e-02  -7.1040507171028652e-02  -7.3657071262034315e-02  -7.6242640844547377e-02  -7.8279494310465242e-02  -8.0244136803976615e-02  -8.2186612654420524e-02  -8.3993279614471422e-02  -8.5849619615851441e-02  -8.7766328978930441e-02  -8.9738083776783273e-02  -9.1800920974515685e-02  -9.3958632880498175e-02  -9.6192808264872837e-02  -9.8444107979710649e-02  -1.0072883940215864e-01  -1.0301354710134668e-01  -1.0481162643919641e-01  -1.0659449971378303e-01  -1.0814676730376216e-01  -1.0703022195547593e-01  -1.0812639911615747e-01  -1.0651309827547124e-01  -9.5742642132451997e-02  -1.0651553803231319e-01  -6.8807994392726474e-02  1.4553726516935107e-02  4.3610199815464082e-03  -4.6722395476892992e-03  -1.9423958465514805e-02  -2.6383129552363761e-02  -3.0581722707550888e-02  -3.4913354905022773e-02  -3.8701885624158744e-02  -4.1406952827485133e-02  -4.3892032171634530e-02  -4.6149573619580907e-02  -4.8059808418399699e-02  -4.9936731594459861e-02  -5.1740470564659392e-02  -5.3525514341954197e-02  -5.5394236931894554e-02  -5.7344218194292147e-02  -5.9425888726783539e-02  -6.1665316459102344e-02  -6.4068316968897754e-02  -6.6626055437516193e-02  -6.9317235846338129e-02  -7.2041503747583821e-02  -7.4796106196487716e-02  -7.7433008866857417e-02  -7.9566895491971545e-02  -8.1936681036332448e-02  -8.2430502478536657e-02  -8.2246514027443415e-02  -8.3827967528690359e-02  -7.4080136462410268e-02  -7.8550097601392255e-02  -6.1665469842107939e-02  9.4128641467918009e-03  2.9142970784593004e-03  8.8525102879386964e-03  3.7364802630729306e-03  3.1239836776172236e-04  -3.7103119408430580e-03  -7.0856976247058688e-03  -9.9115637303811618e-03  -1.2237792965181720e-02  -1.4373813563589403e-02  -1.6262802901934669e-02  -1.7980522761159596e-02  -1.9655650510310357e-02  -2.1301861295963599e-02  -2.3004971640070284e-02  -2.4822321778306393e-02  -2.6794983650463094e-02  -2.8976450312156732e-02  -3.1389734027924630e-02  -3.4048726444460435e-02  -3.6952801311278836e-02  -4.0069000839976048e-02  -4.3376425430246397e-02  -4.6742838375624006e-02  -5.0162298519328331e-02  -5.3257899664188563e-02  -5.6209734768201673e-02  -5.8656036096011700e-02  -5.8745756682379205e-02  -6.1726780080715284e-02  -5.6066231970537145e-02  -5.5897066597908267e-02  -5.1469980582454652e-02  5.5179820245229915e-03  3.8853554560856703e-04  2.1167029379202573e-02  2.5811796548270954e-02  2.6196907374908984e-02  2.2547392832324736e-02  2.0263867075309413e-02  1.8504436085337122e-02  1.6630267034812050e-02  1.4930272332108604e-02  1.3470936087949997e-02  1.2021279105006718e-02  1.0616078858383291e-02  9.1836735441521121e-03  7.6278719842806566e-03  5.9121296410625628e-03  3.9550017481737049e-03  1.7137688414881225e-03  -8.5242245373343844e-04  -3.7706515004789507e-03  -7.0513113778979154e-03  -1.0670977183532921e-02  -1.4583935673108499e-02  -1.8745484336137219e-02  -2.3002708824119401e-02  -2.7313289036279050e-02  -3.1242213141966790e-02  -3.5324780287328432e-02  -3.7171772828646615e-02  -4.0922991207035180e-02  -3.9785709450533342e-02  -3.8126354825643374e-02  -4.1289886278273243e-02  2.9071872911065589e-03  -2.6374393654269028e-03  3.1588441436910593e-02  4.7612159491200595e-02  5.1774406679486622e-02  4.9047790003675443e-02  4.7242162472196661e-02  4.6734699636514172e-02  4.5343861731583515e-02  4.4094628583392054e-02  4.3113073450351258e-02  4.2016576766076785e-02  4.0919206201104140e-02  3.9783856593550979e-02  3.8439605711232207e-02  3.6877652255014992e-02  3.5000700953722298e-02  3.2735216532675020e-02  3.0036108441973297e-02  2.6862239613625768e-02  2.3198328829201958e-02  1.9042665707172075e-02  1.4432307254345028e-02  9.4069000835732188e-03  4.1053253789268959e-03  -1.4427536370080014e-03  -6.8808161126740347e-03  -1.2442163913147300e-02  -1.6805492995014642e-02  -2.1683792339760574e-02  -2.4684564472471061e-02  -2.4014624258116502e-02  -3.1867334003606300e-02  1.1733504725722301e-03  -6.1101352940719743e-03  3.9263178209280734e-02  6.9406170411916629e-02  7.7609162946408766e-02  7.6359012147521915e-02  7.4229878313392131e-02  7.4824957898260755e-02  7.4108972472910609e-02  7.3161438100630763e-02  7.2683600788499142e-02  7.2045926963623802e-02  7.1297348545605099e-02  7.0524186218028237e-02  6.9502134022927570e-02  6.8150972065477086e-02  6.6418966386275688e-02  6.4194703617566365e-02  6.1404581931992192e-02  5.7992171449697441e-02  5.3936021817136207e-02  4.9224221467054366e-02  4.3846199690735922e-02  3.7886827199176951e-02  3.1388649189531506e-02  2.4465731097184203e-02  1.7266329534257694e-02  1.0015720251943123e-02  2.9208333860604738e-03  -3.8681995054186047e-03  -1.0353050918288715e-02  -1.2535057564047958e-02  -2.3992647782481551e-02  -5.5963662418103395e-05  -9.2900096131614696e-03  4.2906569193389962e-02  9.0015603415037060e-02  1.0403036225994405e-01  1.0472829862016649e-01  1.0171786120455453e-01  1.0260360382648888e-01  1.0299779120705384e-01  1.0226537629615269e-01  1.0217859110321208e-01  1.0214663824676261e-01  1.0183679455492245e-01  1.0146228168783271e-01  1.0087844652674433e-01  9.9863629097351497e-02  9.8333818287769256e-02  9.6206603761108414e-02  9.3379056722224907e-02  8.9780703162474162e-02  8.5355718835246938e-02  8.0043892454424490e-02  7.3872170395499162e-02  6.6900776382366745e-02  5.9110698301461789e-02  5.0623270758316762e-02  4.1568691392807500e-02  3.2219367376436624e-02  2.2446643323948037e-02  1.2851677408238376e-02  3.3504077698831899e-03  -2.8816940484028448e-03  -1.7621190718343272e-02  -1.1551369974223242e-03  -1.0880310690988822e-02  4.1165609525863449e-02  1.0651192611546599e-01  1.3058064775861833e-01  1.3404281599616349e-01  1.3036718698698035e-01  1.3014828873363085e-01  1.3173209418459572e-01  1.3157061117473595e-01  1.3156323448993368e-01  1.3219443059882516e-01  1.3257233106410996e-01  1.3266388564730755e-01  1.3256426650937911e-01  1.3205018609672492e-01  1.3089640325428589e-01  1.2897488963061032e-01  1.2618296176521068e-01  1.2242354847204706e-01  1.1760690421383185e-01  1.1171725368941342e-01  1.0476270833157601e-01  9.6708247691383808e-02  8.7514507052635040e-02  7.7349675368090356e-02  6.6303329443978667e-02  5.4623926867855666e-02  4.1929726010784742e-02  2.9109195421986579e-02  1.6578338147553433e-02  5.6907337768912093e-03  -1.2974023641061682e-02  -2.2569034380379828e-03  -9.4146870358946221e-03  3.2599547037841826e-02  1.1288534178274526e-01  1.5480841702592507e-01  1.6371505150148866e-01  1.6035290925666731e-01  1.5789475676945583e-01  1.5971410266109484e-01  1.6100134257621029e-01  1.6115408351001578e-01  1.6208657583681790e-01  1.6341461031452523e-01  1.6434135567449304e-01  1.6480318896591978e-01  1.6479047599306695e-01  1.6409684583214806e-01  1.6250467233204127e-01  1.5985028841435414e-01  1.5602140070886342e-01  1.5094050040662826e-01  1.4455771756963612e-01  1.3677990953900449e-01  1.2755489622190297e-01  1.1691194290188449e-01  1.0500068792738272e-01  9.1849142629151045e-02  7.7627581500766096e-02  6.1663217500987237e-02  4.5478755679319784e-02  2.9630555138772854e-02  1.3710461881480569e-02  -1.0010127809783595e-02  -3.6075936597706314e-03  -4.9332918949846058e-03  1.8991990823767183e-02  1.0394578137529845e-01  1.7078499506599484e-01  1.9223870339811389e-01  1.9154640117689783e-01  1.8692333675124129e-01  1.8685522573759042e-01  1.8950598394384541e-01  1.9101316643941926e-01  1.9209248595736497e-01  1.9398396572558896e-01  1.9610337516908216e-01  1.9769587181037779e-01  1.9850303407045236e-01  1.9841137556290281e-01  1.9725191005233719e-01  1.9484724776837178e-01  1.9105030111850663e-01  1.8573020927608619e-01  1.7878245558637015e-01  1.7011706410558003e-01  1.5974622573178290e-01  1.4767739227627291e-01  1.3398064007435947e-01  1.1864956535165250e-01  1.0158575239534842e-01  8.2031482582561127e-02  6.2543239466170228e-02  4.3197519038220063e-02  2.1490188382576682e-02  -8.7232441756339030e-03  -5.5031150975030311e-03  -2.9800065936576818e-04  3.5045585722903510e-04  7.6536363123089632e-02  1.6939413340986004e-01  2.1463421628269480e-01  2.2243538143260261e-01  2.1760319363380068e-01  2.1445217472504299e-01  2.1641985874301800e-01  2.2009031884103419e-01  2.2282101189960102e-01  2.2522699945635066e-01  2.2802470101582809e-01  2.3076605058568050e-01  2.3278693786854424e-01  2.3366889109704586e-01  2.33190590476