<?xml version="1.0"?>
<VTKFile type="UnstructuredGrid"  version="0.1"  >
<UnstructuredGrid>
<Piece  NumberOfPoints="1089" NumberOfCells="1024">
<Points>
<DataArray  type="Float64"  NumberOfComponents="3"  format="ascii">0 0 0  0.03125 0 0  0.0625 0 0  0.09375 0 0  0.125 0 0  0.15625 0 0  0.1875 0 0  0.21875 0 0  0.25 0 0  0.28125 0 0  0.3125 0 0  0.34375 0 0  0.375 0 0  0.40625 0 0  0.4375 0 0  0.46875 0 0  0.5 0 0  0.53125 0 0  0.5625 0 0  0.59375 0 0  0.625 0 0  0.65625 0 0  0.6875 0 0  0.71875 0 0  0.75 0 0  0.78125 0 0  0.8125 0 0  0.84375 0 0  0.875 0 0  0.90625 0 0  0.9375 0 0  0.96875 0 0  1 0 0  0 0.03125 0  0.03125 0.03125 0  0.0625 0.03125 0  0.09375 0.03125 0  0.125 0.03125 0  0.15625 0.03125 0  0.1875 0.03125 0  0.21875 0.03125 0  0.25 0.03125 0  0.28125 0.03125 0  0.3125 0.03125 0  0.34375 0.03125 0  0.375 0.03125 0  0.40625 0.03125 0  0.4375 0.03125 0  0.46875 0.03125 0  0.5 0.03125 0  0.53125 0.03125 0  0.5625 0.03125 0  0.59375 0.03125 0  0.625 0.03125 0  0.65625 0.03125 0  0.6875 0.03125 0  0.71875 0.03125 0  0.75 0.03125 0  0.78125 0.03125 0  0.8125 0.03125 0  0.84375 0.03125 0  0.875 0.03125 0  0.90625 0.03125 0  0.9375 0.03125 0  0.96875 0.03125 0  1 0.03125 0  0 0.0625 0  0.03125 0.0625 0  0.0625 0.0625 0  0.09375 0.0625 0  0.125 0.0625 0  0.15625 0.0625 0  0.1875 0.0625 0  0.21875 0.0625 0  0.25 0.0625 0  0.28125 0.0625 0  0.3125 0.0625 0  0.34375 0.0625 0  0.375 0.0625 0  0.40625 0.0625 0  0.4375 0.0625 0  0.46875 0.0625 0  0.5 0.0625 0  0.53125 0.0625 0  0.5625 0.0625 0  0.59375 0.0625 0  0.625 0.0625 0  0.65625 0.0625 0  0.6875 0.0625 0  0.71875 0.0625 0  0.75 0.0625 0  0.78125 0.0625 0  0.8125 0.0625 0  0.84375 0.0625 0  0.875 0.0625 0  0.90625 0.0625 0  0.9375 0.0625 0  0.96875 0.0625 0  1 0.0625 0  0 0.09375 0  0.03125 0.09375 0  0.0625 0.09375 0  0.09375 0.09375 0  0.125 0.09375 0  0.15625 0.09375 0  0.1875 0.09375 0  0.21875 0.09375 0  0.25 0.09375 0  0.28125 0.09375 0  0.3125 0.09375 0  0.34375 0.09375 0  0.375 0.09375 0  0.40625 0.09375 0  0.4375 0.09375 0  0.46875 0.09375 0  0.5 0.09375 0  0.53125 0.09375 0  0.5625 0.09375 0  0.59375 0.09375 0  0.625 0.09375 0  0.65625 0.09375 0  0.6875 0.09375 0  0.71875 0.09375 0  0.75 0.09375 0  0.78125 0.09375 0  0.8125 0.09375 0  0.84375 0.09375 0  0.875 0.09375 0  0.90625 0.09375 0  0.9375 0.09375 0  0.96875 0.09375 0  1 0.09375 0  0 0.125 0  0.03125 0.125 0  0.0625 0.125 0  0.09375 0.125 0  0.125 0.125 0  0.15625 0.125 0  0.1875 0.125 0  0.21875 0.125 0  0.25 0.125 0  0.28125 0.125 0  0.3125 0.125 0  0.34375 0.125 0  0.375 0.125 0  0.40625 0.125 0  0.4375 0.125 0  0.46875 0.125 0  0.5 0.125 0  0.53125 0.125 0  0.5625 0.125 0  0.59375 0.125 0  0.625 0.125 0  0.65625 0.125 0  0.6875 0.125 0  0.71875 0.125 0  0.75 0.125 0  0.78125 0.125 0  0.8125 0.125 0  0.84375 0.125 0  0.875 0.125 0  0.90625 0.125 0  0.9375 0.125 0  0.96875 0.125 0  1 0.125 0  0 0.15625 0  0.03125 0.15625 0  0.0625 0.15625 0  0.09375 0.15625 0  0.125 0.15625 0  0.15625 0.15625 0  0.1875 0.15625 0  0.21875 0.15625 0  0.25 0.15625 0  0.28125 0.15625 0  0.3125 0.15625 0  0.34375 0.15625 0  0.375 0.15625 0  0.40625 0.15625 0  0.4375 0.15625 0  0.46875 0.15625 0  0.5 0.15625 0  0.53125 0.15625 0  0.5625 0.15625 0  0.59375 0.15625 0  0.625 0.15625 0  0.65625 0.15625 0  0.6875 0.15625 0  0.71875 0.15625 0  0.75 0.15625 0  0.78125 0.15625 0  0.8125 0.15625 0  0.84375 0.15625 0  0.875 0.15625 0  0.90625 0.15625 0  0.9375 0.15625 0  0.96875 0.15625 0  1 0.15625 0  0 0.1875 0  0.03125 0.1875 0  0.0625 0.1875 0  0.09375 0.1875 0  0.125 0.1875 0  0.15625 0.1875 0  0.1875 0.1875 0  0.21875 0.1875 0  0.25 0.1875 0  0.28125 0.1875 0  0.3125 0.1875 0  0.34375 0.1875 0  0.375 0.1875 0  0.40625 0.1875 0  0.4375 0.1875 0  0.46875 0.1875 0  0.5 0.1875 0  0.53125 0.1875 0  0.5625 0.1875 0  0.59375 0.1875 0  0.625 0.1875 0  0.65625 0.1875 0  0.6875 0.1875 0  0.71875 0.1875 0  0.75 0.1875 0  0.78125 0.1875 0  0.8125 0.1875 0  0.84375 0.1875 0  0.875 0.1875 0  0.90625 0.1875 0  0.9375 0.1875 0  0.96875 0.1875 0  1 0.1875 0  0 0.21875 0  0.03125 0.21875 0  0.0625 0.21875 0  0.09375 0.21875 0  0.125 0.21875 0  0.15625 0.21875 0  0.1875 0.21875 0  0.21875 0.21875 0  0.25 0.21875 0  0.28125 0.21875 0  0.3125 0.21875 0  0.34375 0.21875 0  0.375 0.21875 0  0.40625 0.21875 0  0.4375 0.21875 0  0.46875 0.21875 0  0.5 0.21875 0  0.53125 0.21875 0  0.5625 0.21875 0  0.59375 0.21875 0  0.625 0.21875 0  0.65625 0.21875 0  0.6875 0.21875 0  0.71875 0.21875 0  0.75 0.21875 0  0.78125 0.21875 0  0.8125 0.21875 0  0.84375 0.21875 0  0.875 0.21875 0  0.90625 0.21875 0  0.9375 0.21875 0  0.96875 0.21875 0  1 0.21875 0  0 0.25 0  0.03125 0.25 0  0.0625 0.25 0  0.09375 0.25 0  0.125 0.25 0  0.15625 0.25 0  0.1875 0.25 0  0.21875 0.25 0  0.25 0.25 0  0.28125 0.25 0  0.3125 0.25 0  0.34375 0.25 0  0.375 0.25 0  0.40625 0.25 0  0.4375 0.25 0  0.46875 0.25 0  0.5 0.25 0  0.53125 0.25 0  0.5625 0.25 0  0.59375 0.25 0  0.625 0.25 0  0.65625 0.25 0  0.6875 0.25 0  0.71875 0.25 0  0.75 0.25 0  0.78125 0.25 0  0.8125 0.25 0  0.84375 0.25 0  0.875 0.25 0  0.90625 0.25 0  0.9375 0.25 0  0.96875 0.25 0  1 0.25 0  0 0.28125 0  0.03125 0.28125 0  0.0625 0.28125 0  0.09375 0.28125 0  0.125 0.28125 0  0.15625 0.28125 0  0.1875 0.28125 0  0.21875 0.28125 0  0.25 0.28125 0  0.28125 0.28125 0  0.3125 0.28125 0  0.34375 0.28125 0  0.375 0.28125 0  0.40625 0.28125 0  0.4375 0.28125 0  0.46875 0.28125 0  0.5 0.28125 0  0.53125 0.28125 0  0.5625 0.28125 0  0.59375 0.28125 0  0.625 0.28125 0  0.65625 0.28125 0  0.6875 0.28125 0  0.71875 0.28125 0  0.75 0.28125 0  0.78125 0.28125 0  0.8125 0.28125 0  0.84375 0.28125 0  0.875 0.28125 0  0.90625 0.28125 0  0.9375 0.28125 0  0.96875 0.28125 0  1 0.28125 0  0 0.3125 0  0.03125 0.3125 0  0.0625 0.3125 0  0.09375 0.3125 0  0.125 0.3125 0  0.15625 0.3125 0  0.1875 0.3125 0  0.21875 0.3125 0  0.25 0.3125 0  0.28125 0.3125 0  0.3125 0.3125 0  0.34375 0.3125 0  0.375 0.3125 0  0.40625 0.3125 0  0.4375 0.3125 0  0.46875 0.3125 0  0.5 0.3125 0  0.53125 0.3125 0  0.5625 0.3125 0  0.59375 0.3125 0  0.625 0.3125 0  0.65625 0.3125 0  0.6875 0.3125 0  0.71875 0.3125 0  0.75 0.3125 0  0.78125 0.3125 0  0.8125 0.3125 0  0.84375 0.3125 0  0.875 0.3125 0  0.90625 0.3125 0  0.9375 0.3125 0  0.96875 0.3125 0  1 0.3125 0  0 0.34375 0  0.03125 0.34375 0  0.0625 0.34375 0  0.09375 0.34375 0  0.125 0.34375 0  0.15625 0.34375 0  0.1875 0.34375 0  0.21875 0.34375 0  0.25 0.34375 0  0.28125 0.34375 0  0.3125 0.34375 0  0.34375 0.34375 0  0.375 0.34375 0  0.40625 0.34375 0  0.4375 0.34375 0  0.46875 0.34375 0  0.5 0.34375 0  0.53125 0.34375 0  0.5625 0.34375 0  0.59375 0.34375 0  0.625 0.34375 0  0.65625 0.34375 0  0.6875 0.34375 0  0.71875 0.34375 0  0.75 0.34375 0  0.78125 0.34375 0  0.8125 0.34375 0  0.84375 0.34375 0  0.875 0.34375 0  0.90625 0.34375 0  0.9375 0.34375 0  0.96875 0.34375 0  1 0.34375 0  0 0.375 0  0.03125 0.375 0  0.0625 0.375 0  0.09375 0.375 0  0.125 0.375 0  0.15625 0.375 0  0.1875 0.375 0  0.21875 0.375 0  0.25 0.375 0  0.28125 0.375 0  0.3125 0.375 0  0.34375 0.375 0  0.375 0.375 0  0.40625 0.375 0  0.4375 0.375 0  0.46875 0.375 0  0.5 0.375 0  0.53125 0.375 0  0.5625 0.375 0  0.59375 0.375 0  0.625 0.375 0  0.65625 0.375 0  0.6875 0.375 0  0.71875 0.375 0  0.75 0.375 0  0.78125 0.375 0  0.8125 0.375 0  0.84375 0.375 0  0.875 0.375 0  0.90625 0.375 0  0.9375 0.375 0  0.96875 0.375 0  1 0.375 0  0 0.40625 0  0.03125 0.40625 0  0.0625 0.40625 0  0.09375 0.40625 0  0.125 0.40625 0  0.15625 0.40625 0  0.1875 0.40625 0  0.21875 0.40625 0  0.25 0.40625 0  0.28125 0.40625 0  0.3125 0.40625 0  0.34375 0.40625 0  0.375 0.40625 0  0.40625 0.40625 0  0.4375 0.40625 0  0.46875 0.40625 0  0.5 0.40625 0  0.53125 0.40625 0  0.5625 0.40625 0  0.59375 0.40625 0  0.625 0.40625 0  0.65625 0.40625 0  0.6875 0.40625 0  0.71875 0.40625 0  0.75 0.40625 0  0.78125 0.40625 0  0.8125 0.40625 0  0.84375 0.40625 0  0.875 0.40625 0  0.90625 0.40625 0  0.9375 0.40625 0  0.96875 0.40625 0  1 0.40625 0  0 0.4375 0  0.03125 0.4375 0  0.0625 0.4375 0  0.09375 0.4375 0  0.125 0.4375 0  0.15625 0.4375 0  0.1875 0.4375 0  0.21875 0.4375 0  0.25 0.4375 0  0.28125 0.4375 0  0.3125 0.4375 0  0.34375 0.4375 0  0.375 0.4375 0  0.40625 0.4375 0  0.4375 0.4375 0  0.46875 0.4375 0  0.5 0.4375 0  0.53125 0.4375 0  0.5625 0.4375 0  0.59375 0.4375 0  0.625 0.4375 0  0.65625 0.4375 0  0.6875 0.4375 0  0.71875 0.4375 0  0.75 0.4375 0  0.78125 0.4375 0  0.8125 0.4375 0  0.84375 0.4375 0  0.875 0.4375 0  0.90625 0.4375 0  0.9375 0.4375 0  0.96875 0.4375 0  1 0.4375 0  0 0.46875 0  0.03125 0.46875 0  0.0625 0.46875 0  0.09375 0.46875 0  0.125 0.46875 0  0.15625 0.46875 0  0.1875 0.46875 0  0.21875 0.46875 0  0.25 0.46875 0  0.28125 0.46875 0  0.3125 0.46875 0  0.34375 0.46875 0  0.375 0.46875 0  0.40625 0.46875 0  0.4375 0.46875 0  0.46875 0.46875 0  0.5 0.46875 0  0.53125 0.46875 0  0.5625 0.46875 0  0.59375 0.46875 0  0.625 0.46875 0  0.65625 0.46875 0  0.6875 0.46875 0  0.71875 0.46875 0  0.75 0.46875 0  0.78125 0.46875 0  0.8125 0.46875 0  0.84375 0.46875 0  0.875 0.46875 0  0.90625 0.46875 0  0.9375 0.46875 0  0.96875 0.46875 0  1 0.46875 0  0 0.5 0  0.03125 0.5 0  0.0625 0.5 0  0.09375 0.5 0  0.125 0.5 0  0.15625 0.5 0  0.1875 0.5 0  0.21875 0.5 0  0.25 0.5 0  0.28125 0.5 0  0.3125 0.5 0  0.34375 0.5 0  0.375 0.5 0  0.40625 0.5 0  0.4375 0.5 0  0.46875 0.5 0  0.5 0.5 0  0.53125 0.5 0  0.5625 0.5 0  0.59375 0.5 0  0.625 0.5 0  0.65625 0.5 0  0.6875 0.5 0  0.71875 0.5 0  0.75 0.5 0  0.78125 0.5 0  0.8125 0.5 0  0.84375 0.5 0  0.875 0.5 0  0.90625 0.5 0  0.9375 0.5 0  0.96875 0.5 0  1 0.5 0  0 0.53125 0  0.03125 0.53125 0  0.0625 0.53125 0  0.09375 0.53125 0  0.125 0.53125 0  0.15625 0.53125 0  0.1875 0.53125 0  0.21875 0.53125 0  0.25 0.53125 0  0.28125 0.53125 0  0.3125 0.53125 0  0.34375 0.53125 0  0.375 0.53125 0  0.40625 0.53125 0  0.4375 0.53125 0  0.46875 0.53125 0  0.5 0.53125 0  0.53125 0.53125 0  0.5625 0.53125 0  0.59375 0.53125 0  0.625 0.53125 0  0.65625 0.53125 0  0.6875 0.53125 0  0.71875 0.53125 0  0.75 0.53125 0  0.78125 0.531
[...]
<PointData  Scalars="u_sol"> 
<DataArray  type="Float64"  Name="u_sol"  format="ascii">-2.9545273806717827e-05  -9.7466320906583823e-05  1.8872330395178048e-04  6.3244899608396246e-04  9.2493584980815667e-04  9.5990095322289761e-04  1.5214918819202714e-03  2.8839565262691411e-03  3.4062344664392940e-03  6.5192120618816386e-03  1.7189681231250475e-02  2.7041974591370300e-02  2.5378904318711249e-02  1.3095904753221019e-02  -3.4031893356166569e-03  -1.7587746489289229e-02  -2.4598981766013238e-02  -2.1303601951680771e-02  -7.0546409343925755e-03  1.5915432298904193e-02  4.2418237830906189e-02  6.5772783097451867e-02  7.4352662844227646e-02  5.8800804987944211e-02  3.1690733327798502e-02  9.0613482798927707e-03  -1.8896978810585973e-03  -2.2593940558790727e-03  -1.0759329632801338e-03  -6.9481333568656390e-04  -3.9120606587103671e-04  -1.5940068306810577e-04  2.6245950886819720e-05  -2.0899219843581758e-04  9.6525919953362703e-04  4.1720482852648623e-03  7.5594024232942016e-03  9.7784770113904674e-03  1.0812031965359287e-02  1.0959402217146714e-02  1.2647546461920628e-02  1.0566693059863078e-02  -7.0167186599809370e-03  -4.2911510853246786e-02  -8.8303986429546080e-02  -1.3148171546020074e-01  -1.6605193290309786e-01  -1.8913070718578601e-01  -1.9941115954271499e-01  -1.9651811718836790e-01  -1.8083153270859123e-01  -1.5306684466530848e-01  -1.1455293727104482e-01  -6.7989921004605283e-02  -1.8863063349317890e-02  2.6859499627088276e-02  6.0551612003917940e-02  6.9079947706427725e-02  5.7323191604007583e-02  3.8663173527825001e-02  2.0195063342276838e-02  8.6369469611914523e-03  3.0356409625167603e-03  4.7094880907389805e-04  -1.4560135512844114e-04  -4.6137696602655417e-06  -4.7880852352988107e-04  2.1946710732659107e-03  7.3688192648280020e-03  1.1301728480982114e-02  1.1584801272557560e-02  1.0815304084885853e-02  6.9894697174020821e-03  -1.7035479144196890e-02  -6.4513002539925826e-02  -1.2214903457138190e-01  -1.8024384205149269e-01  -2.3142874361956886e-01  -2.7175558319060078e-01  -3.0051538614478468e-01  -3.1858219094582424e-01  -3.2705597304587591e-01  -3.2642851842036519e-01  -3.1647616712382248e-01  -2.9670858696057983e-01  -2.6662065424940373e-01  -2.2598890497183607e-01  -1.7553039538094337e-01  -1.1805467060406649e-01  -5.7684840787710148e-02  -3.2121422520116406e-03  2.7042607461137198e-02  3.2864397874470465e-02  2.8329758806583876e-02  1.8501427458253755e-02  9.3464194855130932e-03  3.7808999086663461e-03  7.4980343822992745e-04  -1.5957612322547079e-04  -8.1102626498287989e-04  3.9028677531736775e-03  1.0790764300970521e-02  1.1186635656143621e-02  7.9544837642012405e-03  -5.6346566249422005e-03  -4.5857351530328910e-02  -1.0740341931973946e-01  -1.7495901339190037e-01  -2.3790892758082260e-01  -2.8988950434079130e-01  -3.2984459329123411e-01  -3.5896190415195145e-01  -3.7899813884237915e-01  -3.9153373667464308e-01  -3.9771282808766750e-01  -3.9834595342113688e-01  -3.9393202634957225e-01  -3.8410091203123720e-01  -3.6737015839909393e-01  -3.4124204729152313e-01  -3.0255142995071854e-01  -2.4864976612773043e-01  -1.8029464140620025e-01  -1.0369913375235455e-01  -3.2525534938234561e-02  8.3792762623020253e-03  1.8479877274370008e-02  1.8458927838760998e-02  1.3412083902346645e-02  6.5966044711342087e-03  1.8384645873350169e-03  -2.7427191733000506e-04  -1.0696321278162789e-03  6.3432559302813276e-03  1.1249135107252809e-02  5.8457431542656762e-03  -1.4439590431636394e-02  -6.1586657130330513e-02  -1.2891941799452045e-01  -2.0002673405942328e-01  -2.6309276477595761e-01  -3.1244246843397600e-01  -3.4790184514477929e-01  -3.7182767401552563e-01  -3.8704349473006378e-01  -3.9605865916419591e-01  -4.0099052986288325e-01  -4.0347607170849331e-01  -4.0455574815628315e-01  -4.0465417475072341e-01  -4.0367874506996104e-01  -4.0070690162439293e-01  -3.9335413926031254e-01  -3.7719852821850375e-01  -3.4605394504343356e-01  -2.9388839113215337e-01  -2.1922937359476974e-01  -1.3008366436395194e-01  -4.4158271209595923e-02  4.1442803805846872e-03  1.2940918560231609e-02  1.1673802546748132e-02  7.9622613394157576e-03  2.5554388540147844e-03  -5.0598391511669769e-04  -3.9089627191356068e-04  7.4249690154877188e-03  5.9482394170368375e-03  -1.6505168745674353e-02  -6.3586834102836803e-02  -1.3101461579285520e-01  -2.0225681071672696e-01  -2.6380530151856668e-01  -3.0961589708153242e-01  -3.3975361685293359e-01  -3.5746070563992527e-01  -3.6668223582083959e-01  -3.7096454893072789e-01  -3.7292019672502374e-01  -3.7407306429756243e-01  -3.7509444790994534e-01  -3.7622162142966220e-01  -3.7758844571154437e-01  -3.7943783997609082e-01  -3.8200902819576832e-01  -3.8490750905905330e-01  -3.8602580458355662e-01  -3.8019040153061684e-01  -3.5892754548662814e-01  -3.1292162864292722e-01  -2.3770121083365645e-01  -1.4174673138925131e-01  -4.5422025746952331e-02  4.2999753858566254e-03  9.7060525792440986e-03  7.0950586853964926e-03  1.9987589303544226e-03  -1.1208569688655300e-04  1.0354994128853792e-03  4.6789770618947246e-03  -1.2746412090874487e-02  -5.5609805852030403e-02  -1.1821772247535405e-01  -1.8749711639454145e-01  -2.4759489222290526e-01  -2.9105507637784561e-01  -3.1751461089614708e-01  -3.3091916539185451e-01  -3.3640794102705229e-01  -3.3846607424349956e-01  -3.3986874904034603e-01  -3.4159753221273731e-01  -3.4357040143624940e-01  -3.4544856613514663e-01  -3.4703221568738180e-01  -3.4830260785857087e-01  -3.4941025540941084e-01  -3.5073498119859586e-01  -3.5293994892041208e-01  -3.5669927649838179e-01  -3.6140648441843659e-01  -3.6259956046638586e-01  -3.5015234415901692e-01  -3.1092519796581219e-01  -2.3653953831643318e-01  -1.3620995929848725e-01  -3.4258922189974055e-02  6.3068575843818215e-03  4.0719025365975716e-03  4.1343259529109406e-03  -1.1590453603035622e-03  2.8711715175336661e-03  -5.5281006414596035e-03  -4.0810285602961710e-02  -9.5590815566777260e-02  -1.6045783854618911e-01  -2.1958268871791747e-01  -2.6269222219955884e-01  -2.8805229079493372e-01  -2.9967443456158838e-01  -3.0369955844626884e-01  -3.0544765345995512e-01  -3.0772547457411209e-01  -3.1091831035732481e-01  -3.1436549867487312e-01  -3.1749497404900540e-01  -3.2010096772695074e-01  -3.2220895675245720e-01  -3.2393591052064968e-01  -3.2528817019562256e-01  -3.2610347268143836e-01  -3.2627798370568817e-01  -3.2623211682970543e-01  -3.2741105528122666e-01  -3.3137363411401244e-01  -3.3568147760446165e-01  -3.2912570571617283e-01  -2.9407592493537266e-01  -2.1840524520727461e-01  -1.1308467102668802e-01  -1.4686625886089938e-02  1.0834261071636710e-02  -2.2870676544891684e-03  1.0012950335956375e-03  2.9475076083932249e-03  -1.9842238477242573e-02  -6.6613262135622131e-02  -1.2473234217034113e-01  -1.8255878911390369e-01  -2.2714905853064027e-01  -2.5407296968720289e-01  -2.6625671590712208e-01  -2.7027947301712990e-01  -2.7228036457695376e-01  -2.7529660237224501e-01  -2.7928759414446030e-01  -2.8316629408423982e-01  -2.8635278676447129e-01  -2.8891481220395732e-01  -2.9116061358415335e-01  -2.9335255104515517e-01  -2.9562372695028022e-01  -2.9798936098625195e-01  -3.0028388810250689e-01  -3.0202978978785916e-01  -3.0244878090743327e-01  -3.0111117116643743e-01  -2.9943982190682084e-01  -3.0100324481719942e-01  -3.0592609813918398e-01  -3.0194506610691413e-01  -2.6612163568385577e-01  -1.8545676205547387e-01  -7.2651600578907710e-02  -8.3922164541777816e-04  6.4303721874009578e-03  -1.8001041880897809e-04  2.8050345104083546e-03  -3.1082727806524265e-02  -8.3370314609448215e-02  -1.3807602578122052e-01  -1.8504858958954493e-01  -2.1582876635696216e-01  -2.3091340548236700e-01  -2.3620316919851186e-01  -2.3858780825393863e-01  -2.4188878464305666e-01  -2.4614297854080880e-01  -2.4998692604717038e-01  -2.5283927987581101e-01  -2.5501980028626348e-01  -2.5701100838596713e-01  -2.5907773965088604e-01  -2.6130290844145176e-01  -2.6369139149198656e-01  -2.6626883460865564e-01  -2.6910739091587121e-01  -2.7218392682199377e-01  -2.7507077590041806e-01  -2.7655925606141535e-01  -2.7516428460583392e-01  -2.7166704467363229e-01  -2.7121704962244347e-01  -2.7600884384763696e-01  -2.7116349885737340e-01  -2.2795504408362249e-01  -1.3776062549420745e-01  -2.3675052555441368e-02  1.4672068244946469e-02  -5.3565690475088617e-03  2.5593340478490337e-03  -3.6779810110665466e-02  -8.8879515509308102e-02  -1.3650277100640543e-01  -1.7252569625365446e-01  -1.9273986754434769e-01  -2.0103070377585497e-01  -2.0426602050950432e-01  -2.0758818612309235e-01  -2.1191383023661739e-01  -2.1585261434811806e-01  -2.1866111535505611e-01  -2.2080053763992488e-01  -2.2290390323860682e-01  -2.2518470268996679e-01  -2.2758281438284403e-01  -2.3001489583094031e-01  -2.3246130711312457e-01  -2.3493088538941359e-01  -2.3745423816488226e-01  -2.4015373556901107e-01  -2.4323653993294303e-01  -2.4659712692542021e-01  -2.4889485284809934e-01  -2.4764845598276594e-01  -2.4302258756877310e-01  -2.4179463504154053e-01  -2.4660029323151467e-01  -2.3589265765305298e-01  -1.7826733017092403e-01  -7.1409156629933787e-02  -7.6155769402676838e-03  -2.0030193911562619e-03  2.3711068910951850e-03  -3.6701779669448133e-02  -8.4457893017446981e-02  -1.2369518417433609e-01  -1.5051017256042662e-01  -1.6383517305874351e-01  -1.6921647287680794e-01  -1.7269886292427086e-01  -1.7695887641794081e-01  -1.8117819986035691e-01  -1.8428497876736197e-01  -1.8659544953061474e-01  -1.8888156011445439e-01  -1.9139129219604270e-01  -1.9398992773646878e-01  -1.9657463888493670e-01  -1.9915152990590315e-01  -2.0175202531977451e-01  -2.0437915903301868e-01  -2.0698413494918566e-01  -2.0949512281102231e-01  -2.1195271568927715e-01  -2.1470615467592571e-01  -2.1803866509283065e-01  -2.2054732282096443e-01  -2.1882294315040790e-01  -2.1327991095762536e-01  -2.1305738104203359e-01  -2.1661068732344596e-01  -1.9254766151783448e-01  -1.1173160640457123e-01  -7.7197829998363627e-03  1.3486671385279260e-02  2.2820265253738511e-03  -3.1961352623607941e-02  -7.2859375598109552e-02  -1.0381391381834851e-01  -1.2358699758948120e-01  -1.3294542741895288e-01  -1.3751440545666355e-01  -1.4163453126841347e-01  -1.4607459897343414e-01  -1.4971410123397313e-01  -1.5235436475859221e-01  -1.5475968502306331e-01  -1.5735686641338567e-01  -1.6001717625703085e-01  -1.6260792185872378e-01  -1.6517659302188134e-01  -1.6780460358188182e-01  -1.7052570611882870e-01  -1.7333994857737495e-01  -1.7622406822186654e-01  -1.7909624643297925e-01  -1.8179050392621043e-01  -1.8420602098907846e-01  -1.8674899265791670e-01  -1.8999688008469851e-01  -1.9214261975323008e-01  -1.8891183064710523e-01  -1.8313577553744453e-01  -1.8592511439188156e-01  -1.8210953955350448e-01  -1.3237720070443235e-01  -2.0033542016095845e-02  1.9484063964795913e-02  2.3184672739593438e-03  -2.4051102628225639e-02  -5.6843019849531225e-02  -8.0212230467739273e-02  -9.4807045804568085e-02  -1.0197009363524517e-01  -1.0643096064001725e-01  -1.1079302693172974e-01  -1.1491008308490226e-01  -1.1806203460257036e-01  -1.2061494228700566e-01  -1.2319833245976840e-01  -1.2586375658722485e-01  -1.2844605289168265e-01  -1.3098020506333069e-01  -1.3357870134336616e-01  -1.3628613490809874e-01  -1.3910799736584228e-01  -1.4204485629628522e-01  -1.4509162998850703e-01  -1.4822724917722030e-01  -1.5137157056458009e-01  -1.5430746367443182e-01  -1.5681965179921920e-01  -1.5941077736585252e-01  -1.6270732101079746e-01  -1.6368750028082579e-01  -1.5809063069817023e-01  -1.5495944542635356e-01  -1.5939712659158989e-01  -1.3618839571312677e-01  -4.8687566221160140e-02  1.2018834295294286e-02  2.4160703495942847e-03  -1.4231309131761996e-02  -3.8485116899377461e-02  -5.5120618760850740e-02  -6.5785410890977697e-02  -7.1613680398137980e-02  -7.5928732272336430e-02  -8.0088074948014981e-02  -8.3723303739583171e-02  -8.6571877512352416e-02  -8.9120354220147024e-02  -9.1713939536081160e-02  -9.4272090369712014e-02  -9.6757773139171402e-02  -9.9289185903669711e-02  -1.0194354906279185e-01  -1.0473239850180058e-01  -1.0766294171965135e-01  -1.1074092058292860e-01  -1.1395928798771310e-01  -1.1730075792619116e-01  -1.2073194229281924e-01  -1.2416634302980503e-01  -1.2735055519925978e-01  -1.3004585486242753e-01  -1.3301392084683314e-01  -1.3629322979483227e-01  -1.3462231797273777e-01  -1.2833440152715631e-01  -1.3205697506315245e-01  -1.2922929230785293e-01  -6.9569143451379503e-02  5.3285008897836763e-03  2.6215331173857150e-03  -3.4519964378495983e-03  -1.9181207757657456e-02  -2.9724031024510426e-02  -3.7224569132815057e-02  -4.1965703820447016e-02  -4.5907099175707400e-02  -4.9571494100229249e-02  -5.2709877438293862e-02  -5.5321340840688571e-02  -5.7775546448274283e-02  -6.0223170017454544e-02  -6.2619144722796352e-02  -6.5017678147387820e-02  -6.7525909193729389e-02  -7.0187701653537049e-02  -7.3022753302608573e-02  -7.6056185703227003e-02  -7.9298340808008738e-02  -8.2739221513799130e-02  -8.6359229426583708e-02  -9.0128089683071289e-02  -9.3978788172868533e-02  -9.7796683958784936e-02  -1.0128522202392859e-01  -1.0435931129168799e-01  -1.0810972925400271e-01  -1.1030607267034523e-01  -1.0511412939512414e-01  -1.0502504122278590e-01  -1.1222969274965777e-01  -7.4757096399664616e-02  1.3564362875101638e-03  2.2720863699546325e-03  7.2305984863762184e-03  6.0174971739258875e-04  -4.7464712908978106e-03  -9.1873318141806257e-03  -1.2947997633125752e-02  -1.6273509402960833e-02  -1.9299596852947739e-02  -2.1930801648260136e-02  -2.4269134556498206e-02  -2.6508267496834194e-02  -2.8718906000536330e-02  -3.0919685973543186e-02  -3.3193000629605243e-02  -3.5618860752231363e-02  -3.8239411021699095e-02  -4.1093839895008935e-02  -4.4217973183065952e-02  -4.7629691432729382e-02  -5.1324008846969943e-02  -5.5275701183452375e-02  -5.9460562991922948e-02  -6.3828218109306042e-02  -6.8258142376738329e-02  -7.2617499078782524e-02  -7.6557861946670122e-02  -8.0487767911702771e-02  -8.4900553122861017e-02  -8.3345523428890955e-02  -8.0165299292208628e-02  -9.0077083291211280e-02  -6.9240421596387922e-02  -7.7275402757349065e-04  1.5347990871482460e-03  1.7371341970255996e-02  2.0172804992527014e-02  1.9676169060209275e-02  1.8434213499126773e-02  1.5629471761927010e-02  1.3021784945182469e-02  1.0710590173176377e-02  8.6501985593621621e-03  6.6504914849699562e-03  4.7121430489355303e-03  2.8108042534867369e-03  8.5934823261789295e-04  -1.2277710072202339e-03  -3.5101406916758157e-03  -6.0474158558504612e-03  -8.8951317619445792e-03  -1.2093207847682953e-02  -1.5668991900305514e-02  -1.9630259125566558e-02  -2.3959514767589399e-02  -2.8624916287248194e-02  -3.3591631210051702e-02  -3.8755841026008181e-02  -4.3979395992528501e-02  -4.9110279354853605e-02  -5.3816320142753414e-02  -5.9272054446299627e-02  -6.1694320877415186e-02  -5.8101928821681102e-02  -6.7572262164634675e-02  -5.8874046832997684e-02  -2.0993642193661080e-03  5.2686515635567066e-04  2.6199646851695679e-02  3.9023451404830427e-02  4.3481355154677444e-02  4.5578358734594981e-02  4.4028871685128201e-02  4.2058241337652187e-02  4.0488136488687189e-02  3.9068162439852526e-02  3.7501541145494310e-02  3.5917396172654284e-02  3.4389052333046011e-02  3.2766391090868305e-02  3.0936193758208184e-02  2.8855372965806533e-02  2.6454406898402394e-02  2.3655352479119977e-02  2.0406580612109804e-02  1.6674888506009847e-02  1.2441692735968976e-02  7.7086777050236928e-03  2.4950992027714873e-03  -3.1474230701211462e-03  -9.1530523128920023e-03  -1.5369324714790933e-02  -2.1745908006694657e-02  -2.7863717087794618e-02  -3.4171786118285211e-02  -3.9912452303644173e-02  -3.8364146347946410e-02  -4.7386246129196445e-02  -4.7622856953054876e-02  -3.0381690822450882e-03  -8.7325875384689779e-04  3.2402580459735771e-02  5.6308429054438995e-02  6.6471987254064863e-02  7.2134929378662505e-02  7.2380651872806748e-02  7.0976574968862338e-02  7.0053721186091655e-02  6.9334111562017575e-02  6.8323620002095062e-02  6.7156425111339582e-02  6.6041797339512126e-02  6.4840542243518859e-02  6.3366771898312482e-02  6.1555512459430223e-02  5.9345303614699960e-02  5.6648581714477661e-02  5.3391293060929962e-02  4.9524138095211896e-02  4.5018965258347449e-02  3.9858336953360336e-02  3.4050514445639495e-02  2.7649134943612749e-02  2.0720009999202229e-02  1.3339484484527432e-02  5.6332946635595047e-03  -2.2530740789613729e-03  -9.8497715929288729e-03  -1.8181727084623171e-02  -2.0370649933619308e-02  -3.0222852875929362e-02  -3.7309233859543614e-02  -3.8453350332958362e-03  -2.8502533445637804e-03  3.4275877132419752e-02  7.0619078228184834e-02  8.8145112162825112e-02  9.7870155858438113e-02  1.0063146001954550e-01  9.9939459987314738e-02  9.9426816752446856e-02  9.9406835557448711e-02  9.9110461095825858e-02  9.8478679254204324e-02  9.7813375949966752e-02  9.7102309351871391e-02  9.6112108823112052e-02  9.4686894487294226e-02  9.2748026940295658e-02  9.0211503421238959e-02  8.6991835989095850e-02  8.3023042271137354e-02  7.8251676429787601e-02  7.2642279020762701e-02  6.6206121091558670e-02  5.8990735028373514e-02  5.1040837361753078e-02  4.2362458087253439e-02  3.3135420322219798e-02  2.3348539852622037e-02  1.3853668667458059e-02  3.2859933743913630e-03  -3.5242839648824335e-03  -1.5794014654997180e-02  -2.8538005428262236e-02  -4.5918436738325444e-03  -5.4297704966298332e-03  3.0449017903973696e-02  8.0132675582142002e-02  1.0753247662055976e-01  1.2235151807919889e-01  1.2842158446097390e-01  1.2901465726225311e-01  1.2869504050053832e-01  1.2918867575308624e-01  1.2975472871166766e-01  1.2989120486837361e-01  1.2979001341068200e-01  1.2960668793961386e-01  1.2918634261524520e-01  1.2829099096735808e-01  1.2675815465240570e-01  1.2448042849932872e-01  1.2136422506198977e-01  1.1732504101329423e-01  1.1229488399989698e-01  1.0623762964325940e-01  9.9163956524400770e-02  9.1098514274999084e-02  8.2021804447276692e-02  7.1931182383400197e-02  6.0955613417233649e-02  4.9231949690709140e-02  3.7319675586607377e-02  2.4486925539390577e-02  1.2618964151179217e-02  -3.4703702403218691e-03  -2.1386756589390418e-02  -5.3242223765315646e-03  -7.9463045335346691e-03  2.1853479322024562e-02  8.3187164358401788e-02  1.2280876829761114e-01  1.4466672831003083e-01  1.5500780311754209e-01  1.5791522099541630e-01  1.5799565645734917e-01  1.5864493659618434e-01  1.6002278606530979e-01  1.6123944420955888e-01  1.6202598133989055e-01  1.6251760491033071e-01  1.6271648845840281e-01  1.6242772878997899e-01  1.6142176690815227e-01  1.5952259379094783e-01  1.5660288837031550e-01  1.5256231951926238e-01  1.4732908095260983e-01  1.4086978454887222e-01  1.3317559449662578e-01  1.2420699069943175e-01  1.1389761248342407e-01  1.0225782880384970e-01  8.9429505232541173e-02  7.5575625544015049e-02  6.1154665633191434e-02  4.5525818860762075e-02  2.8427271178047765e-02  7.3586777622990356e-03  -1.5955175221216682e-02  -5.8476611436522660e-03  -8.2064036776299098e-03  1.2646880490916170e-02  7.7900962320610445e-02  1.3107856307798957e-01  1.6285366998762907e-01  1.7909741531422271e-01  1.8569770942068342e-01  1.8720172763827830e-01  1.8794887947981778e-01  1.8976646611538681e-01  1.9215262443909292e-01  1.9429147311511910e-01  1.9590464802626928e-01  1.9696892146444075e-01  1.9739446141885031e-01  1.9699369588315341e-01  1.9556266209153850e-01  1.9293479459239635e-01  1.8898893104376260e-01  1.8364071823713421e-01  1.7683064493986089e-01  1.6848927405067693e-01  1.5852250889519390e-01  1.4687835783523934e-01  1.3362009598094962e-01  1.1886440653906530e-01  1.0278518653552189e-01  8.5790632441888365e-02  6.6709308625330324e-02  4.4085215851006915e-02  1.6832036854911487e-02  -1.2159787890258646e-02  -6.1851801058573049e-03  -3.7025904029514417e-03  8.2677701309565883e-03  6.2701644343657173e-02  1.2823423664942779e-01  1.7320973701854106e-01  1.9846995864876821e-01  2.1060965715009589e-01  2.1531885662077108e-01  2.1714101409160597e-01  2.1926128375256909e-01  2.2247908364873564e-01  2.2610368747655618e-01  2.2935306997534372e-01  2.3182996729069752e-01  2.3335962483789613e-01  2.3379718569676508e-01  2.329