<?xml version="1.0"?>
<VTKFile type="UnstructuredGrid"  version="0.1"  >
<UnstructuredGrid>
<Piece  NumberOfPoints="1089" NumberOfCells="1024">
<Points>
<DataArray  type="Float64"  NumberOfComponents="3"  format="ascii">0 0 0  0.03125 0 0  0.0625 0 0  0.09375 0 0  0.125 0 0  0.15625 0 0  0.1875 0 0  0.21875 0 0  0.25 0 0  0.28125 0 0  0.3125 0 0  0.34375 0 0  0.375 0 0  0.40625 0 0  0.4375 0 0  0.46875 0 0  0.5 0 0  0.53125 0 0  0.5625 0 0  0.59375 0 0  0.625 0 0  0.65625 0 0  0.6875 0 0  0.71875 0 0  0.75 0 0  0.78125 0 0  0.8125 0 0  0.84375 0 0  0.875 0 0  0.90625 0 0  0.9375 0 0  0.96875 0 0  1 0 0  0 0.03125 0  0.03125 0.03125 0  0.0625 0.03125 0  0.09375 0.03125 0  0.125 0.03125 0  0.15625 0.03125 0  0.1875 0.03125 0  0.21875 0.03125 0  0.25 0.03125 0  0.28125 0.03125 0  0.3125 0.03125 0  0.34375 0.03125 0  0.375 0.03125 0  0.40625 0.03125 0  0.4375 0.03125 0  0.46875 0.03125 0  0.5 0.03125 0  0.53125 0.03125 0  0.5625 0.03125 0  0.59375 0.03125 0  0.625 0.03125 0  0.65625 0.03125 0  0.6875 0.03125 0  0.71875 0.03125 0  0.75 0.03125 0  0.78125 0.03125 0  0.8125 0.03125 0  0.84375 0.03125 0  0.875 0.03125 0  0.90625 0.03125 0  0.9375 0.03125 0  0.96875 0.03125 0  1 0.03125 0  0 0.0625 0  0.03125 0.0625 0  0.0625 0.0625 0  0.09375 0.0625 0  0.125 0.0625 0  0.15625 0.0625 0  0.1875 0.0625 0  0.21875 0.0625 0  0.25 0.0625 0  0.28125 0.0625 0  0.3125 0.0625 0  0.34375 0.0625 0  0.375 0.0625 0  0.40625 0.0625 0  0.4375 0.0625 0  0.46875 0.0625 0  0.5 0.0625 0  0.53125 0.0625 0  0.5625 0.0625 0  0.59375 0.0625 0  0.625 0.0625 0  0.65625 0.0625 0  0.6875 0.0625 0  0.71875 0.0625 0  0.75 0.0625 0  0.78125 0.0625 0  0.8125 0.0625 0  0.84375 0.0625 0  0.875 0.0625 0  0.90625 0.0625 0  0.9375 0.0625 0  0.96875 0.0625 0  1 0.0625 0  0 0.09375 0  0.03125 0.09375 0  0.0625 0.09375 0  0.09375 0.09375 0  0.125 0.09375 0  0.15625 0.09375 0  0.1875 0.09375 0  0.21875 0.09375 0  0.25 0.09375 0  0.28125 0.09375 0  0.3125 0.09375 0  0.34375 0.09375 0  0.375 0.09375 0  0.40625 0.09375 0  0.4375 0.09375 0  0.46875 0.09375 0  0.5 0.09375 0  0.53125 0.09375 0  0.5625 0.09375 0  0.59375 0.09375 0  0.625 0.09375 0  0.65625 0.09375 0  0.6875 0.09375 0  0.71875 0.09375 0  0.75 0.09375 0  0.78125 0.09375 0  0.8125 0.09375 0  0.84375 0.09375 0  0.875 0.09375 0  0.90625 0.09375 0  0.9375 0.09375 0  0.96875 0.09375 0  1 0.09375 0  0 0.125 0  0.03125 0.125 0  0.0625 0.125 0  0.09375 0.125 0  0.125 0.125 0  0.15625 0.125 0  0.1875 0.125 0  0.21875 0.125 0  0.25 0.125 0  0.28125 0.125 0  0.3125 0.125 0  0.34375 0.125 0  0.375 0.125 0  0.40625 0.125 0  0.4375 0.125 0  0.46875 0.125 0  0.5 0.125 0  0.53125 0.125 0  0.5625 0.125 0  0.59375 0.125 0  0.625 0.125 0  0.65625 0.125 0  0.6875 0.125 0  0.71875 0.125 0  0.75 0.125 0  0.78125 0.125 0  0.8125 0.125 0  0.84375 0.125 0  0.875 0.125 0  0.90625 0.125 0  0.9375 0.125 0  0.96875 0.125 0  1 0.125 0  0 0.15625 0  0.03125 0.15625 0  0.0625 0.15625 0  0.09375 0.15625 0  0.125 0.15625 0  0.15625 0.15625 0  0.1875 0.15625 0  0.21875 0.15625 0  0.25 0.15625 0  0.28125 0.15625 0  0.3125 0.15625 0  0.34375 0.15625 0  0.375 0.15625 0  0.40625 0.15625 0  0.4375 0.15625 0  0.46875 0.15625 0  0.5 0.15625 0  0.53125 0.15625 0  0.5625 0.15625 0  0.59375 0.15625 0  0.625 0.15625 0  0.65625 0.15625 0  0.6875 0.15625 0  0.71875 0.15625 0  0.75 0.15625 0  0.78125 0.15625 0  0.8125 0.15625 0  0.84375 0.15625 0  0.875 0.15625 0  0.90625 0.15625 0  0.9375 0.15625 0  0.96875 0.15625 0  1 0.15625 0  0 0.1875 0  0.03125 0.1875 0  0.0625 0.1875 0  0.09375 0.1875 0  0.125 0.1875 0  0.15625 0.1875 0  0.1875 0.1875 0  0.21875 0.1875 0  0.25 0.1875 0  0.28125 0.1875 0  0.3125 0.1875 0  0.34375 0.1875 0  0.375 0.1875 0  0.40625 0.1875 0  0.4375 0.1875 0  0.46875 0.1875 0  0.5 0.1875 0  0.53125 0.1875 0  0.5625 0.1875 0  0.59375 0.1875 0  0.625 0.1875 0  0.65625 0.1875 0  0.6875 0.1875 0  0.71875 0.1875 0  0.75 0.1875 0  0.78125 0.1875 0  0.8125 0.1875 0  0.84375 0.1875 0  0.875 0.1875 0  0.90625 0.1875 0  0.9375 0.1875 0  0.96875 0.1875 0  1 0.1875 0  0 0.21875 0  0.03125 0.21875 0  0.0625 0.21875 0  0.09375 0.21875 0  0.125 0.21875 0  0.15625 0.21875 0  0.1875 0.21875 0  0.21875 0.21875 0  0.25 0.21875 0  0.28125 0.21875 0  0.3125 0.21875 0  0.34375 0.21875 0  0.375 0.21875 0  0.40625 0.21875 0  0.4375 0.21875 0  0.46875 0.21875 0  0.5 0.21875 0  0.53125 0.21875 0  0.5625 0.21875 0  0.59375 0.21875 0  0.625 0.21875 0  0.65625 0.21875 0  0.6875 0.21875 0  0.71875 0.21875 0  0.75 0.21875 0  0.78125 0.21875 0  0.8125 0.21875 0  0.84375 0.21875 0  0.875 0.21875 0  0.90625 0.21875 0  0.9375 0.21875 0  0.96875 0.21875 0  1 0.21875 0  0 0.25 0  0.03125 0.25 0  0.0625 0.25 0  0.09375 0.25 0  0.125 0.25 0  0.15625 0.25 0  0.1875 0.25 0  0.21875 0.25 0  0.25 0.25 0  0.28125 0.25 0  0.3125 0.25 0  0.34375 0.25 0  0.375 0.25 0  0.40625 0.25 0  0.4375 0.25 0  0.46875 0.25 0  0.5 0.25 0  0.53125 0.25 0  0.5625 0.25 0  0.59375 0.25 0  0.625 0.25 0  0.65625 0.25 0  0.6875 0.25 0  0.71875 0.25 0  0.75 0.25 0  0.78125 0.25 0  0.8125 0.25 0  0.84375 0.25 0  0.875 0.25 0  0.90625 0.25 0  0.9375 0.25 0  0.96875 0.25 0  1 0.25 0  0 0.28125 0  0.03125 0.28125 0  0.0625 0.28125 0  0.09375 0.28125 0  0.125 0.28125 0  0.15625 0.28125 0  0.1875 0.28125 0  0.21875 0.28125 0  0.25 0.28125 0  0.28125 0.28125 0  0.3125 0.28125 0  0.34375 0.28125 0  0.375 0.28125 0  0.40625 0.28125 0  0.4375 0.28125 0  0.46875 0.28125 0  0.5 0.28125 0  0.53125 0.28125 0  0.5625 0.28125 0  0.59375 0.28125 0  0.625 0.28125 0  0.65625 0.28125 0  0.6875 0.28125 0  0.71875 0.28125 0  0.75 0.28125 0  0.78125 0.28125 0  0.8125 0.28125 0  0.84375 0.28125 0  0.875 0.28125 0  0.90625 0.28125 0  0.9375 0.28125 0  0.96875 0.28125 0  1 0.28125 0  0 0.3125 0  0.03125 0.3125 0  0.0625 0.3125 0  0.09375 0.3125 0  0.125 0.3125 0  0.15625 0.3125 0  0.1875 0.3125 0  0.21875 0.3125 0  0.25 0.3125 0  0.28125 0.3125 0  0.3125 0.3125 0  0.34375 0.3125 0  0.375 0.3125 0  0.40625 0.3125 0  0.4375 0.3125 0  0.46875 0.3125 0  0.5 0.3125 0  0.53125 0.3125 0  0.5625 0.3125 0  0.59375 0.3125 0  0.625 0.3125 0  0.65625 0.3125 0  0.6875 0.3125 0  0.71875 0.3125 0  0.75 0.3125 0  0.78125 0.3125 0  0.8125 0.3125 0  0.84375 0.3125 0  0.875 0.3125 0  0.90625 0.3125 0  0.9375 0.3125 0  0.96875 0.3125 0  1 0.3125 0  0 0.34375 0  0.03125 0.34375 0  0.0625 0.34375 0  0.09375 0.34375 0  0.125 0.34375 0  0.15625 0.34375 0  0.1875 0.34375 0  0.21875 0.34375 0  0.25 0.34375 0  0.28125 0.34375 0  0.3125 0.34375 0  0.34375 0.34375 0  0.375 0.34375 0  0.40625 0.34375 0  0.4375 0.34375 0  0.46875 0.34375 0  0.5 0.34375 0  0.53125 0.34375 0  0.5625 0.34375 0  0.59375 0.34375 0  0.625 0.34375 0  0.65625 0.34375 0  0.6875 0.34375 0  0.71875 0.34375 0  0.75 0.34375 0  0.78125 0.34375 0  0.8125 0.34375 0  0.84375 0.34375 0  0.875 0.34375 0  0.90625 0.34375 0  0.9375 0.34375 0  0.96875 0.34375 0  1 0.34375 0  0 0.375 0  0.03125 0.375 0  0.0625 0.375 0  0.09375 0.375 0  0.125 0.375 0  0.15625 0.375 0  0.1875 0.375 0  0.21875 0.375 0  0.25 0.375 0  0.28125 0.375 0  0.3125 0.375 0  0.34375 0.375 0  0.375 0.375 0  0.40625 0.375 0  0.4375 0.375 0  0.46875 0.375 0  0.5 0.375 0  0.53125 0.375 0  0.5625 0.375 0  0.59375 0.375 0  0.625 0.375 0  0.65625 0.375 0  0.6875 0.375 0  0.71875 0.375 0  0.75 0.375 0  0.78125 0.375 0  0.8125 0.375 0  0.84375 0.375 0  0.875 0.375 0  0.90625 0.375 0  0.9375 0.375 0  0.96875 0.375 0  1 0.375 0  0 0.40625 0  0.03125 0.40625 0  0.0625 0.40625 0  0.09375 0.40625 0  0.125 0.40625 0  0.15625 0.40625 0  0.1875 0.40625 0  0.21875 0.40625 0  0.25 0.40625 0  0.28125 0.40625 0  0.3125 0.40625 0  0.34375 0.40625 0  0.375 0.40625 0  0.40625 0.40625 0  0.4375 0.40625 0  0.46875 0.40625 0  0.5 0.40625 0  0.53125 0.40625 0  0.5625 0.40625 0  0.59375 0.40625 0  0.625 0.40625 0  0.65625 0.40625 0  0.6875 0.40625 0  0.71875 0.40625 0  0.75 0.40625 0  0.78125 0.40625 0  0.8125 0.40625 0  0.84375 0.40625 0  0.875 0.40625 0  0.90625 0.40625 0  0.9375 0.40625 0  0.96875 0.40625 0  1 0.40625 0  0 0.4375 0  0.03125 0.4375 0  0.0625 0.4375 0  0.09375 0.4375 0  0.125 0.4375 0  0.15625 0.4375 0  0.1875 0.4375 0  0.21875 0.4375 0  0.25 0.4375 0  0.28125 0.4375 0  0.3125 0.4375 0  0.34375 0.4375 0  0.375 0.4375 0  0.40625 0.4375 0  0.4375 0.4375 0  0.46875 0.4375 0  0.5 0.4375 0  0.53125 0.4375 0  0.5625 0.4375 0  0.59375 0.4375 0  0.625 0.4375 0  0.65625 0.4375 0  0.6875 0.4375 0  0.71875 0.4375 0  0.75 0.4375 0  0.78125 0.4375 0  0.8125 0.4375 0  0.84375 0.4375 0  0.875 0.4375 0  0.90625 0.4375 0  0.9375 0.4375 0  0.96875 0.4375 0  1 0.4375 0  0 0.46875 0  0.03125 0.46875 0  0.0625 0.46875 0  0.09375 0.46875 0  0.125 0.46875 0  0.15625 0.46875 0  0.1875 0.46875 0  0.21875 0.46875 0  0.25 0.46875 0  0.28125 0.46875 0  0.3125 0.46875 0  0.34375 0.46875 0  0.375 0.46875 0  0.40625 0.46875 0  0.4375 0.46875 0  0.46875 0.46875 0  0.5 0.46875 0  0.53125 0.46875 0  0.5625 0.46875 0  0.59375 0.46875 0  0.625 0.46875 0  0.65625 0.46875 0  0.6875 0.46875 0  0.71875 0.46875 0  0.75 0.46875 0  0.78125 0.46875 0  0.8125 0.46875 0  0.84375 0.46875 0  0.875 0.46875 0  0.90625 0.46875 0  0.9375 0.46875 0  0.96875 0.46875 0  1 0.46875 0  0 0.5 0  0.03125 0.5 0  0.0625 0.5 0  0.09375 0.5 0  0.125 0.5 0  0.15625 0.5 0  0.1875 0.5 0  0.21875 0.5 0  0.25 0.5 0  0.28125 0.5 0  0.3125 0.5 0  0.34375 0.5 0  0.375 0.5 0  0.40625 0.5 0  0.4375 0.5 0  0.46875 0.5 0  0.5 0.5 0  0.53125 0.5 0  0.5625 0.5 0  0.59375 0.5 0  0.625 0.5 0  0.65625 0.5 0  0.6875 0.5 0  0.71875 0.5 0  0.75 0.5 0  0.78125 0.5 0  0.8125 0.5 0  0.84375 0.5 0  0.875 0.5 0  0.90625 0.5 0  0.9375 0.5 0  0.96875 0.5 0  1 0.5 0  0 0.53125 0  0.03125 0.53125 0  0.0625 0.53125 0  0.09375 0.53125 0  0.125 0.53125 0  0.15625 0.53125 0  0.1875 0.53125 0  0.21875 0.53125 0  0.25 0.53125 0  0.28125 0.53125 0  0.3125 0.53125 0  0.34375 0.53125 0  0.375 0.53125 0  0.40625 0.53125 0  0.4375 0.53125 0  0.46875 0.53125 0  0.5 0.53125 0  0.53125 0.53125 0  0.5625 0.53125 0  0.59375 0.53125 0  0.625 0.53125 0  0.65625 0.53125 0  0.6875 0.53125 0  0.71875 0.53125 0  0.75 0.53125 0  0.78125 0.531
[...]
<PointData  Scalars="v_sol"> 
<DataArray  type="Float64"  Name="v_sol"  format="ascii">1.8183858199739607e-05  1.8555315036474090e-04  3.1763176236750275e-04  2.3009243211321039e-04  2.5877948756675276e-04  -6.9338264810476789e-05  -4.7993549173991492e-05  1.0130935948190235e-03  2.6023720473508199e-04  -2.7132372877666480e-03  -5.4891068592530876e-03  -5.2723268812386358e-03  -3.4338012616006541e-03  -1.5659884920508468e-03  -1.3445147988110805e-04  8.0378289279515373e-04  1.3319760156845781e-03  1.5143376709303305e-03  1.6859848980731753e-03  1.9623857665674337e-03  2.4467242579594632e-03  2.9253099106098281e-03  4.3108305642157955e-03  4.1803417740147444e-03  1.0113161430774825e-03  -3.8515582869529319e-04  -2.1930222810499370e-03  -1.9369802760925362e-03  -7.5870230337008219e-04  -3.5949454582059307e-04  -1.0797066077085581e-04  1.1597610166865599e-05  1.7005812826806060e-05  1.6165708174327190e-04  -1.0427848922960289e-03  -1.8854243302445907e-03  -1.4684276070708127e-03  -1.0394593191694762e-03  -2.2710785116402380e-05  -8.6208515651758639e-04  -3.4327921737382226e-03  1.2320863660576990e-03  7.1040522063579841e-03  1.2028616233276206e-02  1.8397924555268744e-02  2.2642325026510781e-02  2.2096219241802870e-02  1.6706880750889878e-02  7.7508573278422012e-03  -3.3353889426384073e-03  -1.5199447558465437e-02  -2.6127895813469144e-02  -3.4102789446227778e-02  -3.6728805399017017e-02  -3.1847923044797062e-02  -1.6579990940997984e-02  4.9107956025747869e-03  1.8723550048049452e-02  1.8350254686676396e-02  1.2421867234341959e-02  6.6290916932059823e-03  3.0666541336786856e-03  1.4010573106582574e-03  4.0970688562106799e-04  -2.1205385391336563e-04  -1.2957716058544113e-04  1.5304504198568564e-04  -4.5502113673041552e-03  -6.3630403735897333e-03  -4.5166170461379031e-03  -1.1259859837930550e-03  -1.2118585387522205e-03  1.7039444031159154e-03  1.2833738709874899e-02  3.2330470414825140e-02  5.2092688074670754e-02  6.4533874951318293e-02  6.7399968949445291e-02  6.1692575046579642e-02  4.9248555279031922e-02  3.1854016154078478e-02  1.1198139396791694e-02  -1.1375583435296464e-02  -3.4538410907214358e-02  -5.6567414734855936e-02  -7.4898224134270358e-02  -8.5873258750204892e-02  -8.5045977693747721e-02  -6.9215754672330959e-02  -3.7958214057377780e-02  -9.8386526682938107e-04  2.1289514110165188e-02  2.4099165890839012e-02  1.9817992450265123e-02  1.3227869347375741e-02  7.1244718535422970e-03  3.1401303161557922e-03  7.2548807888390228e-04  -3.2941797365228356e-04  -4.7780317095942196e-05  -1.0768642013361222e-02  -1.1303210711429172e-02  -4.4928145873441329e-03  7.2933127993532042e-04  9.7245558788564678e-03  3.3448156150483868e-02  6.7409778053682728e-02  9.6296449681024784e-02  1.1316367309063398e-01  1.1625726754679050e-01  1.0772309936076922e-01  9.1013937324986346e-02  6.8840269859773054e-02  4.3107808760213702e-02  1.5001119578315472e-02  -1.4666183685800119e-02  -4.5179073080441834e-02  -7.5381690960243802e-02  -1.0326947024948697e-01  -1.2535393049413143e-01  -1.3661899061171445e-01  -1.3143930188037944e-01  -1.0684351398562966e-01  -6.4654626716794297e-02  -1.6429726408582573e-02  1.5252111441486497e-02  2.1876045520436236e-02  2.0112609426959263e-02  1.4549860712929826e-02  8.5142386701105577e-03  3.4325810848105428e-03  -5.5655758399993435e-05  -1.2470698255872387e-03  -1.9801712221482481e-02  -1.3206613778426173e-02  9.5704574665291930e-04  1.8210600030858833e-02  5.3350428865377539e-02  9.8885506454708033e-02  1.3687010185600901e-01  1.5905994640756435e-01  1.6370954523441847e-01  1.5404938832592080e-01  1.3456966410692228e-01  1.0910230344436905e-01  8.0229783289112747e-02  4.9427330989354097e-02  1.7459651822895397e-02  -1.5290992829523346e-02  -4.8626493074693598e-02  -8.2407623639041985e-02  -1.1578572118526083e-01  -1.4679146803510984e-01  -1.7160263734196660e-01  -1.8433406252481538e-01  -1.7787421204734122e-01  -1.4755329237794912e-01  -9.4720372667280214e-02  -3.1502591306475307e-02  1.2184957005024300e-02  2.0337836667269005e-02  1.9823849899938607e-02  1.3615337288030134e-02  8.1078587623558233e-03  3.4038348833095210e-04  -5.6040019067542472e-03  -2.8599360694806727e-02  -7.4754490182801425e-03  2.2172944735058452e-02  6.5671676747769442e-02  1.2150892455724693e-01  1.6996537222128227e-01  1.9908899959835619e-01  2.0648143952342449e-01  1.9636116220780159e-01  1.7474380049365590e-01  1.4673426621809901e-01  1.1575940844924595e-01  8.3700340097661516e-02  5.1305423112756252e-02  1.8691602152349034e-02  -1.4263954670097206e-02  -4.7662740382011966e-02  -8.1509167283072406e-02  -1.1570115636264384e-01  -1.4980476072376336e-01  -1.8250723599640178e-01  -2.1039797022677262e-01  -2.2684460581429902e-01  -2.2211969263975967e-01  -1.8751991311402907e-01  -1.2215028031247174e-01  -3.9979164988235949e-02  1.5223560849648049e-02  1.9278367268804966e-02  1.9945114690080649e-02  1.2142141071545057e-02  1.1258183674307258e-03  -1.4444345071095394e-02  -3.0323254321376440e-02  1.3511549112944006e-02  6.6945243474578350e-02  1.3152275724929940e-01  1.9194670989624932e-01  2.3079504210623589e-01  2.4344299254417767e-01  2.3447754051704667e-01  2.1170040654715669e-01  1.8199841932985844e-01  1.4986021317622872e-01  1.1737926268157861e-01  8.5037000439371707e-02  5.2663012365792253e-02  2.0031678108288840e-02  -1.2964026439058075e-02  -4.6290145810243349e-02  -7.9722330214337278e-02  -1.1306893919802957e-01  -1.4627578399311400e-01  -1.7951331332016601e-01  -2.1269503780945814e-01  -2.4347278262596458e-01  -2.6430984781318634e-01  -2.6147076522335827e-01  -2.2056811057753734e-01  -1.3867915528733235e-01  -3.5109716791500899e-02  2.2771523845804179e-02  1.9124961215003594e-02  1.7432752594807845e-02  2.0886335080175828e-03  -2.4805374340086145e-02  -1.6134939340248976e-02  5.2378589298549015e-02  1.2606610241201441e-01  1.9918095533918415e-01  2.5171645376481050e-01  2.7386091414929165e-01  2.6904429351738124e-01  2.4677861091422318e-01  2.1639395218919064e-01  1.8393014292181264e-01  1.5173830720358780e-01  1.1986384820580043e-01  8.7776820062303182e-02  5.5201049276023532e-02  2.2135237861098039e-02  -1.1315656906721618e-02  -4.5022837224558458e-02  -7.8776056132801003e-02  -1.1225576001423582e-01  -1.4504741733276480e-01  -1.7692039150222802e-01  -2.0842101808389721e-01  -2.4088641724856072e-01  -2.7361665738383190e-01  -2.9799122526283178e-01  -2.9457381418977802e-01  -2.4181375654420137e-01  -1.3680032941696316e-01  -1.1801638570049644e-02  2.5988713875358671e-02  2.1001957140087995e-02  1.4493083820541547e-03  -2.6369436443673434e-02  1.5078907088091356e-02  1.0262784461879605e-01  1.8830253777901268e-01  2.5807755833195822e-01  2.9554635294725606e-01  2.9971499273787355e-01  2.8067754511105431e-01  2.5069342387440019e-01  2.1829655093186404e-01  1.8663375975401209e-01  1.5536078402736972e-01  1.2355700853166053e-01  9.0994393356213177e-02  5.7880576355506724e-02  2.4432517476102228e-02  -9.2324920330041724e-03  -4.3053480089974797e-02  -7.7028549023719070e-02  -1.1104329421257862e-01  -1.4476952702970566e-01  -1.7753453334791944e-01  -2.0857258514405103e-01  -2.3825032967674825e-01  -2.6924871793971894e-01  -3.0298312276920120e-01  -3.2901166476865057e-01  -3.1955404196493437e-01  -2.4495495929610800e-01  -1.0806691449936388e-01  2.4824448943442091e-02  2.1495637450393432e-02  4.5881814008197066e-03  -1.3741372075899257e-02  5.7788318773491748e-02  1.5744745278131647e-01  2.4540193196214036e-01  3.0409970952132342e-01  3.2423832790423079e-01  3.1300046708505586e-01  2.8509675810729451e-01  2.5283482665206281e-01  2.2149319509840640e-01  1.9076415749130723e-01  1.5919539485227963e-01  1.2655662996621256e-01  9.3360130738734282e-02  5.9993822188822252e-02  2.6562118586928495e-02  -6.9605830964224224e-03  -4.0610016427606151e-02  -7.4396519421400048e-02  -1.0834374123944049e-01  -1.4246426221109645e-01  -1.7657876371573097e-01  -2.0985489566230489e-01  -2.4072606458653645e-01  -2.6885413149482656e-01  -2.9831990203088138e-01  -3.3284161225440584e-01  -3.5746773015150651e-01  -3.3163243472210252e-01  -2.1949244726227821e-01  -4.2360186844990134e-02  3.5251376179571622e-02  9.3787185362700885e-03  8.6226768998171055e-03  1.0686569470282463e-01  2.1066948377302588e-01  2.9356512605961382e-01  3.3758108278219390e-01  3.4159583485120187e-01  3.1939573552092926e-01  2.8770363481336109e-01  2.5614469346356061e-01  2.2581077130056854e-01  1.9462705869302827e-01  1.6198919792787067e-01  1.2870517229913628e-01  9.5401221557965835e-02  6.2147251067532529e-02  2.8836201258012152e-02  -4.5938227223693198e-03  -3.8155237467429770e-02  -7.1810600668064786e-02  -1.0553193209857702e-01  -1.3935874446348281e-01  -1.7345870010776182e-01  -2.0794007647858456e-01  -2.4192843679078618e-01  -2.7283039357544525e-01  -2.9941527000941126e-01  -3.2799748128188078e-01  -3.6385504938870239e-01  -3.8055935982535777e-01  -3.1907916889914129e-01  -1.4983994967980990e-01  4.1328902907414443e-02  -6.4835594700946627e-04  3.5111309092322081e-02  1.5650669986553978e-01  2.5836124652432968e-01  3.3206950643429994e-01  3.6103619823125876e-01  3.5201728316522879e-01  3.2330396739068418e-01  2.9099049346909184e-01  2.6048957630072145e-01  2.2990194725470936e-01  1.9754438087306772e-01  1.6419621168033605e-01  1.3090918626389206e-01  9.7805496589861429e-02  6.4652443457834885e-02  3.1354373098334554e-02  -2.0795145520321164e-03  -3.5627336860005271e-02  -6.9280914673056707e-02  -1.0301053396181929e-01  -1.3676065070632445e-01  -1.7053360577095333e-01  -2.0461734665659573e-01  -2.3948109756896396e-01  -2.7414749198706923e-01  -3.0455308284342569e-01  -3.2916013343588962e-01  -3.5877674840725471e-01  -3.9575040837356851e-01  -3.8824305398314984e-01  -2.5745356462311375e-01  -8.7241452210828057e-03  1.9009928953697675e-02  5.9895020209114073e-02  2.0225618198049344e-01  2.9854198737915233e-01  3.6180699088107998e-01  3.7744259651486090e-01  3.5895994193404673e-01  3.2700925235087802e-01  2.9517672571122205e-01  2.6489439738905585e-01  2.3325828899153164e-01  1.9997521096235443e-01  1.6653775642481361e-01  1.3347319143764647e-01  1.0043666656010704e-01  6.7242989413054302e-02  3.3938154131714471e-02  5.5231126014706328e-04  -3.2929012941951843e-02  -6.6532263454257043e-02  -1.0028004573241181e-01  -1.3415975561115032e-01  -1.6808484038575158e-01  -2.0197467139415262e-01  -2.3622148278039234e-01  -2.7170098808780241e-01  -3.0682211776586210e-01  -3.3526063561625963e-01  -3.5789878719653889e-01  -3.9287368298497333e-01  -4.2323360551838762e-01  -3.5348258988574804e-01  -1.1268821141977386e-01  8.5385074693320295e-02  7.8422577267135016e-02  2.4116497736109316e-01  3.3054483535121071e-01  3.8422201919475379e-01  3.8924204566248022e-01  3.6444941737281505e-01  3.3110275688428764e-01  2.9965504336600773e-01  2.6883097912647408e-01  2.3610966921969767e-01  2.0241705746502703e-01  1.6913618592697888e-01  1.3614259626363448e-01  1.0301949178531707e-01  6.9794269745926646e-02  3.6553128397179710e-02  3.2695552809946129e-03  -3.0103854021300239e-02  -6.3603729308153056e-02  -9.7270905387609324e-02  -1.3115403648626200e-01  -1.6526912150521125e-01  -1.9950168250024733e-01  -2.3368223076325315e-01  -2.6842936176299770e-01  -3.0498336412414312e-01  -3.3961035734839351e-01  -3.6355332178663008e-01  -3.8797997058426925e-01  -4.3269687223260028e-01  -4.2308874323475559e-01  -2.2426488142780932e-01  1.2065423086874007e-01  8.7729532511343758e-02  2.7146250844876685e-01  3.5451366247458588e-01  4.0064261531578965e-01  3.9804702042125739e-01  3.6931713629531621e-01  3.3536273502692010e-01  3.0389716212657514e-01  2.7225325553059110e-01  2.3875717216872835e-01  2.0496582803858240e-01  1.7178193906217432e-01  1.3871612259082949e-01  1.0552784243791553e-01  7.2365066803808650e-02  3.9241848857722722e-02  6.0816543344352093e-03  -2.7163499432764027e-02  -6.0535814204321199e-02  -9.4085308981789739e-02  -1.2787582325114646e-01  -1.6198317285463248e-01  -1.9644011706872264e-01  -2.3108245080922998e-01  -2.6571817719839141e-01  -3.0156741799948517e-01  -3.3948680597805364e-01  -3.7041284309343497e-01  -3.8870037880883429e-01  -4.2739614656461017e-01  -4.6258597691270137e-01  -3.1873453069904462e-01  9.3940255331909306e-02  8.5775478567748573e-02  2.9251254786091030e-01  3.7077955905868876e-01  4.1209413167678716e-01  4.0471221704249571e-01  3.7371498858543045e-01  3.3940116432274869e-01  3.0764127547755110e-01  2.7525823183941767e-01  2.4129777190339274e-01  2.0748904186933376e-01  1.7430156295934313e-01  1.4115820140508711e-01  1.0799447815721364e-01  7.4955678696827663e-02  4.1978313985487098e-02  8.9777679370379049e-03  -2.4092367137461171e-02  -5.7290649458079997e-02  -9.0681343476497769e-02  -1.2433547398885392e-01  -1.5835068690089052e-01  -1.9282064900113147e-01  -2.2774490012747950e-01  -2.6287596079126363e-01  -2.9828799575489390e-01  -3.3626992565828784e-01  -3.7375414852710120e-01  -3.9443619833362881e-01  -4.1848089027584956e-01  -4.7630804386089531e-01  -3.9671246053867443e-01  3.0574043535730511e-02  7.3018889819683103e-02  3.0314088880516071e-01  3.8007324270027104e-01  4.1911589382130604e-01  4.0960501378341446e-01  3.7753636652546774e-01  3.4291958715335463e-01  3.1079089968418999e-01  2.7789444642182998e-01  2.4367517153196916e-01  2.0983885836303684e-01  1.7661693918466173e-01  1.4345975434650235e-01  1.1039058364062093e-01  7.7510115815807260e-02  4.4717974414153303e-02  1.1936962872761747e-02  -2.0889236917264197e-02  -5.3841115797531591e-02  -8.7003138245671241e-02  -1.2045368373007652e-01  -1.5429962739350800e-01  -1.8868972422283103e-01  -2.2367320949466479e-01  -2.5916182008226751e-01  -2.9490979640330084e-01  -3.3203671486874048e-01  -3.7257629076979476e-01  -4.0098066415162004e-01  -4.1289874123739245e-01  -4.7378066019587467e-01  -4.5783959638197869e-01  -4.5396248166699238e-02  5.1897951459361026e-02  3.0161550453690150e-01  3.8337824981797808e-01  4.2163212323072563e-01  4.1291349013506246e-01  3.8064613926206214e-01  3.4576682520099350e-01  3.1327950824190937e-01  2.8013830479314661e-01  2.4579782874412204e-01  2.1191192674351697e-01  1.7867572112041755e-01  1.4557924532449498e-01  1.1265393366564294e-01  7.9972980330570861e-02  4.7428808310540214e-02  1.4940109784631350e-02  -1.7563251342646805e-02  -5.0178236588502165e-02  -8.3015820669990734e-02  -1.1617088745566038e-01  -1.4974899046750245e-01  -1.8393878963271723e-01  -2.1886992623079704e-01  -2.5444016826142218e-01  -2.9060926708615964e-01  -3.2751271381364466e-01  -3.6817924397100404e-01  -4.0468208672663375e-01  -4.1216548269880354e-01  -4.6240528898622080e-01  -5.0277615784328156e-01  -1.2004672639751451e-01  2.4566025747721418e-02  2.8738823232775168e-01  3.8070263916415353e-01  4.1966383567114790e-01  4.1440037072231872e-01  3.8304234092879497e-01  3.4790041282004674e-01  3.1505145163337528e-01  2.8190492191584166e-01  2.4759670068513315e-01  2.1363967483661361e-01  1.8040965325455377e-01  1.4745056013030955e-01  1.1472079342956204e-01  8.2290308025306652e-02  5.0070170993872148e-02  1.7961196130996730e-02  -1.4126910385492398e-02  -4.6302651543608707e-02  -7.8699199287400906e-02  -1.1143348003486950e-01  -1.4462386413693615e-01  -1.7848174581134521e-01  -2.1320047808365683e-01  -2.4870128673457315e-01  -2.8495346924246562e-01  -3.2221137995606625e-01  -3.6207114158295095e-01  -4.0393522658111425e-01  -4.1401531686802751e-01  -4.4701720828315006e-01  -5.3274039750169022e-01  -1.8792503902261262e-01  -5.5519433475054751e-03  2.6045421176170513e-01  3.7095235464603088e-01  4.1341973985527875e-01  4.1340928325597115e-01  3.8470437861484041e-01  3.4939233696203414e-01  3.1609773792861778e-01  2.8307884847609760e-01  2.4898992321325319e-01  2.1498345360801169e-01  1.8174484514781822e-01  1.4897966297465426e-01  1.1652169771422938e-01  8.4407228812562615e-02  5.2589188599845571e-02  2.0957118793974144e-02  -1.0602585528504533e-02  -4.2219421589287799e-02  -7.4042000518676890e-02  -1.0620280184101444e-01  -1.3884938208020670e-01  -1.7223407053457659e-01  -2.0654984361254700e-01  -2.4178979672752585e-01  -2.7786023811104776e-01  -3.1536289403054152e-01  -3.5487728409349828e-01  -3.9875760973201030e-01  -4.1513441850103405e-01  -4.2983720384624813e-01  -5.4960212230603234e-01  -2.4796873127807398e-01  -3.2683325759656594e-02  2.2120296788003563e-01  3.5208765062567288e-01  4.0266977951797989e-01  4.0922301645048237e-01  3.8529292333485721e-01  3.5044327888374616e-01  3.1648512690300429e-01  2.8354267942057165e-01  2.4984286337935654e-01  2.1590464479882099e-01  1.8263079652171638e-01  1.5005326503554037e-01  1.1794809727369909e-01  8.6251240926623826e-02  5.4927430860079375e-02  2.3878296241239841e-02  -7.0285850638911324e-03  -3.7945838587321160e-02  -6.9033708042173708e-02  -1.0044495138615986e-01  -1.3237642264807351e-01  -1.6510772295095849e-01  -1.9881751567040351e-01  -2.3351577761358994e-01  -2.6922629985600821e-01  -3.0651992967262265e-01  -3.4630263295259694e-01  -3.8989846994482336e-01  -4.1254474941641828e-01  -4.1157748001698663e-01  -5.5515827565199838e-01  -3.0108807139958743e-01  -4.8703930391806663e-02  1.7074565267661443e-01  3.2141366216245931e-01  3.8624673374227197e-01  4.0120250352446640e-01  3.8404330488792415e-01  3.5116435906494481e-01  3.1644881254465695e-01  2.8322452954380900e-01  2.4994783152562991e-01  2.1628763259860409e-01  1.8303491246378797e-01  1.5059175804876765e-01  1.1886287246421919e-01  8.7694856791633372e-02  5.6994349887489332e-02  2.6660422379865580e-02  -3.4487481236101002e-03  -3.3499690083557208e-02  -6.3667433451208635e-02  -9.4143109208157133e-02  -1.2517414928513179e-01  -1.5703801686884428e-01  -1.8987423017819482e-01  -2.2374439084613471e-01  -2.5881345819946228e-01  -2.9561939007775129e-01  -3.3552973350339416e-01  -3.7817619644087380e-01  -4.0410925232898659e-01  -3.9202298650523348e-01  -5.5093274208871679e-01  -3.4883740384369605e-01  -4.6308372563673122e-02  1.1185063260847487e-01  2.7689661092042844e-01  3.6185369481705537e-01  3.8856994673463274e-01  3.7990300193108772e-01  3.5117798598609762e-01  3.1632716260514593e-01  2.8225455382276743e-01  2.4907101502761070e-01  2.1584798557327553e-01  1.8282814258061031e-01  1.5055261648187129e-01  1.1918122226510142e-01  8.8603380539031121e-02  5.8661439192038756e-02  2.9205352474438177e-02  7.4139343797691490e-05  -2.8915785241549540e-02  -5.7968276014748139e-02  -8.7316270955670724e-02  -1.1723125326465275e-01  -1.4795000139268272e-01  -1.7959353808711737e-01  -2.1233858817823931e-01  -2.4644712115828435e-01  -2.8254948508313188e-01  -3.2211033609393336e-01  -3.6347674901341837e-01  -3.8911626467803490e-01  -3.6985354080120758e-01  -5.3852155167632887e-01  -3.9263186996437865e-01  -2.6311327558239086e-02  5.1348750625402784e-02  2.1911903933662671e-01  3.2640468177117821e-01  3.6977216183508965e-01  3.7169837263698624e-01  3.4937917411710528e-01  3.1608137155907862e-01  2.8102483273753542e-01  2.4719632660152893e-01  2.1419000307790154e-01  1.8162323795589286e-01  1.4974200486291184e-01  1.1882482388003693e-01  8.8899073383983770e-02  5.9825886348884832e-02  3.1411332962871484e-02  3.4490371026447259e-03  -2.4276985904623086e-02  -5.2007157853475823e-02  -8.0001049135966479e-02  -1.0851144246772655e-01  -1.3774044801484700e-01  -1.6786722278592958e-01  -1.9919561873368385e-01  -2.3203494924258852e-01  -2.6713686581631868e-01  -3.0595608169434468e-01  -3.4489427962122698e-01  -3.6776930238719074e-01  -3.4286636981642865e-01  -5.1983192940174805e-01  -4.3348948827950562e-01  -7.7746791672246530e-03  4.8936963703909318e-03  1.5203880924601493e-01  2.7730184391658297e-01  3.4171209800522140e-01  3.5777727505468876e-01  3.4412406185289335e-01  3.1470080658883665e-01  2.7966840118618902e-01  2.4468513641952047e-01  2.1119325036169945e-01  1.7892110432121172e-01  1.4766099994327120e-01  1.1747336573404765e-01  8.8407698871915436e-02  6.0372637382836186e-02  3.3178713709566023e-02  6.5864880850376494e-03  -1.9661325806307303e-02  -4.5825555860999408e-02  -7.2162039178100434e-02  -9.8917511117536633e-02