<?xml version="1.0"?>
<VTKFile type="UnstructuredGrid"  version="0.1"  >
<UnstructuredGrid>
<Piece  NumberOfPoints="16641" NumberOfCells="16384">
<Points>
<DataArray  type="Float64"  NumberOfComponents="3"  format="ascii">0 0 0  0.0078125 0 0  0.015625 0 0  0.0234375 0 0  0.03125 0 0  0.0390625 0 0  0.046875 0 0  0.0546875 0 0  0.0625 0 0  0.0703125 0 0  0.078125 0 0  0.0859375 0 0  0.09375 0 0  0.1015625 0 0  0.109375 0 0  0.1171875 0 0  0.125 0 0  0.1328125 0 0  0.140625 0 0  0.1484375 0 0  0.15625 0 0  0.1640625 0 0  0.171875 0 0  0.1796875 0 0  0.1875 0 0  0.1953125 0 0  0.203125 0 0  0.2109375 0 0  0.21875 0 0  0.2265625 0 0  0.234375 0 0  0.2421875 0 0  0.25 0 0  0.2578125 0 0  0.265625 0 0  0.2734375 0 0  0.28125 0 0  0.2890625 0 0  0.296875 0 0  0.3046875 0 0  0.3125 0 0  0.3203125 0 0  0.328125 0 0  0.3359375 0 0  0.34375 0 0  0.3515625 0 0  0.359375 0 0  0.3671875 0 0  0.375 0 0  0.3828125 0 0  0.390625 0 0  0.3984375 0 0  0.40625 0 0  0.4140625 0 0  0.421875 0 0  0.4296875 0 0  0.4375 0 0  0.4453125 0 0  0.453125 0 0  0.4609375 0 0  0.46875 0 0  0.4765625 0 0  0.484375 0 0  0.4921875 0 0  0.5 0 0  0.5078125 0 0  0.515625 0 0  0.5234375 0 0  0.53125 0 0  0.5390625 0 0  0.546875 0 0  0.5546875 0 0  0.5625 0 0  0.5703125 0 0  0.578125 0 0  0.5859375 0 0  0.59375 0 0  0.6015625 0 0  0.609375 0 0  0.6171875 0 0  0.625 0 0  0.6328125 0 0  0.640625 0 0  0.6484375 0 0  0.65625 0 0  0.6640625 0 0  0.671875 0 0  0.6796875 0 0  0.6875 0 0  0.6953125 0 0  0.703125 0 0  0.7109375 0 0  0.71875 0 0  0.7265625 0 0  0.734375 0 0  0.7421875 0 0  0.75 0 0  0.7578125 0 0  0.765625 0 0  0.7734375 0 0  0.78125 0 0  0.7890625 0 0  0.796875 0 0  0.8046875 0 0  0.8125 0 0  0.8203125 0 0  0.828125 0 0  0.8359375 0 0  0.84375 0 0  0.8515625 0 0  0.859375 0 0  0.8671875 0 0  0.875 0 0  0.8828125 0 0  0.890625 0 0  0.8984375 0 0  0.90625 0 0  0.9140625 0 0  0.921875 0 0  0.9296875 0 0  0.9375 0 0  0.9453125 0 0  0.953125 0 0  0.9609375 0 0  0.96875 0 0  0.9765625 0 0  0.984375 0 0  0.9921875 0 0  1 0 0  0 0.0078125 0  0.0078125 0.0078125 0  0.015625 0.0078125 0  0.0234375 0.0078125 0  0.03125 0.0078125 0  0.0390625 0.0078125 0  0.046875 0.0078125 0  0.0546875 0.0078125 0  0.0625 0.0078125 0  0.0703125 0.0078125 0  0.078125 0.0078125 0  0.0859375 0.0078125 0  0.09375 0.0078125 0  0.1015625 0.0078125 0  0.109375 0.0078125 0  0.1171875 0.0078125 0  0.125 0.0078125 0  0.1328125 0.0078125 0  0.140625 0.0078125 0  0.1484375 0.0078125 0  0.15625 0.0078125 0  0.1640625 0.0078125 0  0.171875 0.0078125 0  0.1796875 0.0078125 0  0.1875 0.0078125 0  0.1953125 0.0078125 0  0.203125 0.0078125 0  0.2109375 0.0078125 0  0.21875 0.0078125 0  0.2265625 0.0078125 0  0.234375 0.0078125 0  0.2421875 0.0078125 0  0.25 0.0078125 0  0.2578125 0.0078125 0  0.265625 0.0078125 0  0.2734375 0.0078125 0  0.28125 0.0078125 0  0.2890625 0.0078125 0  0.296875 0.0078125 0  0.3046875 0.0078125 0  0.3125 0.0078125 0  0.3203125 0.0078125 0  0.328125 0.0078125 0  0.3359375 0.0078125 0  0.34375 0.0078125 0  0.3515625 0.0078125 0  0.359375 0.0078125 0  0.3671875 0.0078125 0  0.375 0.0078125 0  0.3828125 0.0078125 0  0.390625 0.0078125 0  0.3984375 0.0078125 0  0.40625 0.0078125 0  0.4140625 0.0078125 0  0.421875 0.0078125 0  0.4296875 0.0078125 0  0.4375 0.0078125 0  0.4453125 0.0078125 0  0.453125 0.0078125 0  0.4609375 0.0078125 0  0.46875 0.0078125 0  0.4765625 0.0078125 0  0.484375 0.0078125 0  0.4921875 0.0078125 0  0.5 0.0078125 0  0.5078125 0.0078125 0  0.515625 0.0078125 0  0.5234375 0.0078125 0  0.53125 0.0078125 0  0.5390625 0.0078125 0  0.546875 0.0078125 0  0.5546875 0.0078125 0  0.5625 0.0078125 0  0.5703125 0.0078125 0  0.578125 0.0078125 0  0.5859375 0.0078125 0  0.59375 0.0078125 0  0.6015625 0.0078125 0  0.609375 0.0078125 0  0.6171875 0.0078125 0  0.625 0.0078125 0  0.6328125 0.0078125 0  0.640625 0.0078125 0  0.6484375 0.0078125 0  0.65625 0.0078125 0  0.6640625 0.0078125 0  0.671875 0.0078125 0  0.6796875 0.0078125 0  0.6875 0.0078125 0  0.6953125 0.0078125 0  0.703125 0.0078125 0  0.7109375 0.0078125 0  0.71875 0.0078125 0  0.7265625 0.0078125 0  0.734375 0.0078125 0  0.7421875 0.0078125 0  0.75 0.0078125 0  0.7578125 0.0078125 0  0.765625 0.0078125 0  0.7734375 0.0078125 0  0.78125 0.0078125 0  0.7890625 0.0078125 0  0.796875 0.0078125 0  0.8046875 0.0078125 0  0.8125 0.0078125 0  0.8203125 0.0078125 0  0.828125 0.0078125 0  0.8359375 0.0078125 0  0.84375 0.0078125 0  0.8515625 0.0078125 0  0.859375 0.0078125 0  0.8671875 0.0078125 0  0.875 0.0078125 0  0.8828125 0.0078125 0  0.890625 0.0078125 0  0.8984375 0.0078125 0  0.90625 0.0078125 0  0.9140625 0.0078125 0  0.921875 0.0078125 0  0.9296875 0.0078125 0  0.9375 0.0078125 0  0.9453125 0.0078125 0  0.953125 0.0078125 0  0.9609375 0.0078125 0  0.96875 0.0078125 0  0.9765625 0.0078125 0  0.984375 0.0078125 0  0.9921875 0.0078125 0  1 0.0078125 0  0 0.015625 0  0.0078125 0.015625 0  0.015625 0.015625 0  0.0234375 0.015625 0  0.03125 0.015625 0  0.0390625 0.015625 0  0.046875 0.015625 0  0.0546875 0.015625 0  0.0625 0.015625 0  0.0703125 0.015625 0  0.078125 0.015625 0  0.0859375 0.015625 0  0.09375 0.015625 0  0.1015625 0.015625 0  0.109375 0.015625 0  0.1171875 0.015625 0  0.125 0.015625 0  0.1328125 0.015625 0  0.140625 0.015625 0  0.1484375 0.015625 0  0.15625 0.015625 0  0.1640625 0.015625 0  0.171875 0.015625 0  0.1796875 0.015625 0  0.1875 0.015625 0  0.1953125 0.015625 0  0.203125 0.015625 0  0.2109375 0.015625 0  0.21875 0.015625 0  0.2265625 0.015625 0  0.234375 0.015625 0  0.2421875 0.015625 0  0.25 0.015625 0  0.2578125 0.015625 0  0.265625 0.015625 0  0.2734375 0.015625 0  0.28125 0.015625 0  0.2890625 0.015625 0  0.296875 0.015625 0  0.3046875 0.015625 0  0.3125 0.015625 0  0.3203125 0.015625 0  0.328125 0.015625 0  0.3359375 0.015625 0  0.34375 0.015625 0  0.3515625 0.015625 0  0.359375 0.015625 0  0.3671875 0.015625 0  0.375 0.015625 0  0.3828125 0.015625 0  0.390625 0.015625 0  0.3984375 0.015625 0  0.40625 0.015625 0  0.4140625 0.015625 0  0.421875 0.015625 0  0.4296875 0.015625 0  0.4375 0.015625 0  0.4453125 0.015625 0  0.453125 0.015625 0  0.4609375 0.015625 0  0.46875 0.015625 0  0.4765625 0.015625 0  0.484375 0.015625 0  0.4921875 0.015625 0  0.5 0.015625 0  0.5078125 0.015625 0  0.515625 0.015625 0  0.5234375 0.015625 0  0.53125 0.015625 0  0.5390625 0.015625 0  0.546875 0.015625 0  0.5546875 0.015625 0  0.5625 0.015625 0  0.5703125 0.015625 0  0.578125 0.015625 0  0.5859375 0.015625 0  0.59375 0.015625 0  0.6015625 0.015625 0  0.609375 0.015625 0  0.6171875 0.015625 0  0.625 0.015625 0  0.6328125 0.015625 0  0.640625 0.015625 0  0.6484375 0.015625 0  0.65625 0.015625 0  0.6640625 0.015625 0  0.671875 0.015625 0  0.6796875 0.015625 0  0.6875 0.015625 0  0.6953125 0.015625 0  0.703125 0.015625 0  0.7109375 0.015625 0  0.71875 0.015625 0  0.7265625 0.015625 0  0.734375 0.015625 0  0.7421875 0.015625 0  0.75 0.015625 0  0.7578125 0.015625 0  0.765625 0.015625 0  0.7734375 0.015625 0  0.78125 0.015625 0  0.7890625 0.015625 0  0.796875 0.015625 0  0.8046875 0.015625 0  0.8125 0.015625 0  0.8203125 0.015625 0  0.828125 0.015625 0  0.8359375 0.015625 0  0.84375 0.015625 0  0.8515625 0.015625 0  0.859375 0.015625 0  0.8671875 0.015625 0  0.875 0.015625 0  0.8828125 0.015625 0  0.890625 0.015625 0  0.8984375 0.015625 0  0.90625 0.015625 0  0.9140625 0.015625 0  0.921875 0.015625 0  0.9296875 0.015625 0  0.9375 0.015625 0  0.9453125 0.015625 0  0.953125 0.015625 0  0.9609375 0.015625 0  0.96875 0.015625 0  0.9765625 0.015625 0  0.984375 0.015625 0  0.9921875 0.015625 0  1 0.015625 0  0 0.0234375 0  0.0078125 0.0234375 0  0.015625 0.0234375 0  0.0234375 0.0234375 0  0.03125 0.0234375 0  0.0390625 0.0234375 0  0.046875 0.0234375 0  0.0546875 0.0234375 0  0.0625 0.0234375 0  0.0703125 0.0234375 0  0.078125 0.0234375 0  0.0859375 0.0234375 0  0.09375 0.0234375 0  0.1015625 0.0234375 0  0.109375 0.0234375 0  0.1171875 0.0234375 0  0.125 0.0234375 0  0.1328125 0.0234375 0  0.140625 0.0234375 0  0.1484375 0.0234375 0  0.15625 0.0234375 0  0.1640625 0.0234375 0  0.171875 0.0234375 0  0.1796875 0.0234375 0  0.1875 0.0234375 0  0.1953125 0.0234375 0  0.203125 0.0234375 0  0.2109375 0.0234375 0  0.21875 0.0234375 0  0.2265625 0.0234375 0  0.234375 0.0234375 0  0.2421875 0.0234375 0  0.25 0.0234375 0  0.2578125 0.0234375 0  0.265625 0.0234375 0  0.2734375 0.0234375 0  0.28125 0.0234375 0  0.2890625 0.0234375 0  0.296875 0.0234375 0  0.3046875 0.0234375 0  0.3125 0.0234375 0  0.3203125 0.0234375 0  0.328125 0.0234375 0  0.3359375 0.0234375 0  0.34375 0.0234375 0  0.3515625 0.0234375 0  0.359375 0.0234375 0  0.3671875 0.0234375 0  0.375 0.0234375 0  0.3828125 0.0234375 0  0.390625 0.0234375 0  0.3984375 0.0234375 0  0.40625 0.0234375 0  0.4140625 0.0234375 0  0.421875 0.0234375 0  0.4296875 0.0234375 0  0.4375 0.0234375 0  0.4453125 0.0234375 0  0.453125 0.0234375 0  0.4609375 0.0234375 0  0.46875 0.0234375 0  0.4765625 0.0234375 0  0.484375 0.0234375 0  0.4921875 0.0234375 0  0.5 0.0234375 0  0.5078125 0.0234375 0  0.515625 0.0234375 0  0.5234375 0.0234375 0  0.53125 0.0234375 0  0.5390625 0.0234375 0  0.546875 0.0234375 0  0.5546875 0.0234375 0  0.5625 0.0234375 0  0.5703125 0.0234375 0  0.578125 0.0234375 0  0.5859375 0.0234375 0  0.59375 0.0234375 0  0.6015625 0.0234375 0  0.609375 0.0234375 0  0.6171875 0.0234375 0  0.625 0.0234375 0  0.6328125 0.0234375 0  0.640625 0.0234375 0  0.6484375 0.0234375 0  0.65625 0.0234375 0  0.6640625 0.0234375 0  0.671875 0.0234375 0  0.6796875 0.0234375 0  0.6875 0.0234375 0  0.6953125 0.0234375 0  0.703125 0.0234375 0  0.7109375 0.0234375 0  0.71875 0.0234375 0  0.7265625 0.0234375 0  0.734375 0.0234375 0  0.7421875 0.0234375 0  0.75 0.0234375 0  0.7578125 0.0234375 0  0.765625 0.0234375 0  0.7734375 0.0234375 0  0.78125 0.0234375 0  0.7890625 0.0234375 0  0.796875 0.0234375 0  0.8046875 0.0234375 0  0.8125 0.0234375 0  0.8203125 0.0234375 0  0.828125 0.0234375 0  0.8359375 0.0234375 0  0.84375 0.0234375 0  0.8515625 0.0234375 0  0.859375 0.0234375 0  0.8671
[...]
<PointData  Scalars="u_sol"> 
<DataArray  type="Float64"  Name="u_sol"  format="ascii">1.1445037634364005e-06  -1.0809246762167485e-05  -2.0818845118077437e-05  -1.9659194064466936e-05  -1.1894926967797475e-05  4.3271088244118175e-07  1.5300643078985814e-05  3.1180740552438900e-05  4.6745991787588695e-05  6.0961300198706023e-05  7.3109316649596322e-05  8.2819686349595086e-05  9.0056298759336124e-05  9.5073451848560442e-05  9.8348978056725467e-05  1.0050763389664402e-04  1.0224625205028129e-04  1.0426729166222433e-04  1.0722410188697081e-04  1.1168009148416774e-04  1.1807768411898942e-04  1.2672240836601525e-04  1.3777962448677320e-04  1.5128813473941303e-04  1.6719093669383692e-04  1.8537388934341517e-04  2.0571466701029085e-04  2.2811874400081704e-04  2.5254352486949149e-04  2.7900925115571378e-04  3.0758515479220898e-04  3.3835881461179732e-04  3.7139225226675692e-04  4.0670350012896972e-04  4.4422888919150712e-04  4.8379245449632516e-04  5.2509423912873204e-04  5.6769734068746330e-04  6.1112053419719173e-04  6.5462299065658367e-04  6.9740444993885277e-04  7.3834818660866862e-04  7.7613019275581683e-04  8.0973337071913647e-04  8.3754163423964531e-04  8.5790274293088230e-04  8.6935101542735132e-04  8.7029405418281457e-04  8.5914100267427736e-04  8.3403341596794756e-04  7.9387474110999485e-04  7.3796271302290265e-04  6.6553537157622766e-04  5.7631581824819618e-04  4.7039197016083574e-04  3.4829818743922661e-04  2.1101956502070775e-04  6.0005324057514742e-05  -1.0283514201175441e-04  -2.7514525585561715e-04  -4.5414255574499689e-04  -6.3665937781383678e-04  -8.1916018002672192e-04  -9.9788739282332035e-04  -1.1686917517137788e-03  -1.3276330542046522e-03  -1.4698217291400494e-03  -1.5922247563334669e-03  -1.6912995303317053e-03  -1.7615224650810988e-03  -1.7993839769382296e-03  -1.8017400124139811e-03  -1.7661537746053895e-03  -1.6911045325746171e-03  -1.5761145630204779e-03  -1.4219153653135448e-03  -1.2305495884043743e-03  -1.0054257853253253e-03  -7.5132013608839563e-04  -4.7422451293815514e-04  -1.8125458506139779e-04  1.1916899152928336e-04  4.1719744760208079e-04  7.0411465920413544e-04  9.7322861037716713e-04  1.2189498394636965e-03  1.4337770027404986e-03  1.6111232334926058e-03  1.7471260574830789e-03  1.8399838145144517e-03  1.8901101908126874e-03  1.8978231826033579e-03  1.8670124081156629e-03  1.8030261241789665e-03  1.7101819321420431e-03  1.5956579075088299e-03  1.4662517106591197e-03  1.3257050835674391e-03  1.1796832927346941e-03  1.0334653152210098e-03  8.9097950056605645e-04  7.5593641433931668e-04  6.3068235316765108e-04  5.1706562126818190e-04  4.1614887915698829e-04  3.2824412772298084e-04  2.5307959988062555e-04  1.8994633777666894e-04  1.3787668005799789e-04  9.5714078265543838e-05  6.2170060396948913e-05  3.6022382881473226e-05  1.6090908798054924e-05  1.2734095968576393e-06  -9.4178207133728994e-06  -1.6844592478648553e-05  -2.1762104537758803e-05  -2.4833385607749478e-05  -2.6630337102994029e-05  -2.7640777848916296e-05  -2.8251314539803665e-05  -2.8710552749498307e-05  -2.9067862392923168e-05  -2.9079582735718242e-05  -2.8111986179136185e-05  -2.4972743905730562e-05  -1.8142019730116788e-05  -6.1911819709278150e-06  1.3845491314031952e-06  -3.0524946966169511e-06  4.8806216533830944e-06  1.0256135289290767e-04  3.3391670618248967e-04  6.8811524311547566e-04  1.1388717062691275e-03  1.6535894646178876e-03  2.1989032766110768e-03  2.7434912968488704e-03  3.2603150939377349e-03  3.7282031014332587e-03  4.1327756281751169e-03  4.4666644171732217e-03  4.7290764068027777e-03  4.9248194263277843e-03  5.0629510403817661e-03  5.1552197726870202e-03  5.2144583808651423e-03  5.2530601557862532e-03  5.2816447881826063e-03  5.3080081140562492e-03  5.3364125725825808e-03  5.3672818886631663e-03  5.3972976891247266e-03  5.4198435750372016e-03  5.4257174942813034e-03  5.4039571475714239e-03  5.3426334215047151e-03  5.2294540590883693e-03  5.0520853199067257e-03  4.7982151164872094e-03  4.4554215953776883e-03  4.0109140148133502e-03  3.4512659613833972e-03  2.7624246683162863e-03  1.9298765147887983e-03  9.3869170852842730e-04  -2.2640540991257656e-04  -1.5804214221844686e-03  -3.1367461164742518e-03  -4.9074128652471117e-03  -6.9022460294150458e-03  -9.1287884649671851e-03  -1.1592401972081834e-02  -1.4293015365628717e-02  -1.7225909563727170e-02  -2.0382460283054800e-02  -2.3748991954390102e-02  -2.7306722289604783e-02  -3.1031720763056124e-02  -3.4896145181220688e-02  -3.8867912137169856e-02  -4.2910462193426500e-02  -4.6983780325071486e-02  -5.1044878156941476e-02  -5.5048462005136009e-02  -5.8947551889661276e-02  -6.2694117397135471e-02  -6.6239693177972889e-02  -6.9535975515707407e-02  -7.2535401012263065e-02  -7.5191703056043308e-02  -7.7460500997623874e-02  -7.9299780531998557e-02  -8.0670778790600611e-02  -8.1537812693678838e-02  -8.1871009887785451e-02  -8.1642322957211411e-02  -8.0827708567654338e-02  -7.9412885555744356e-02  -7.7389890455393240e-02  -7.4758476969853632e-02  -7.1527038978716290e-02  -6.7713141418367637e-02  -6.3344126725941099e-02  -5.8457455224253531e-02  -5.3100853043986804e-02  -4.7332163255571179e-02  -4.1218838562462702e-02  -3.4837098187946752e-02  -2.8270469215367602e-02  -2.1608036293639634e-02  -1.4942940228152884e-02  -8.3754358157854866e-03  -2.0077842591689986e-03  4.0677887327879459e-03  9.7744311850999025e-03  1.5039810778333426e-02  1.9794461478492148e-02  2.3979907689872623e-02  2.7554266842887878e-02  3.0496681524484953e-02  3.2797605310635539e-02  3.4461005442237687e-02  3.5507782667090940e-02  3.5968715041210235e-02  3.5889437456663877e-02  3.5327744591386559e-02  3.4341904880792820e-02  3.2995578307109863e-02  3.1356289530758696e-02  2.9490695023129978e-02  2.7464224726330970e-02  2.5337830669352742e-02  2.3166934205234180e-02  2.1000286304469321e-02  1.8879276800121348e-02  1.6837544081439240e-02  1.4900862102332867e-02  1.3087742837132007e-02  1.1410203310922152e-02  9.8742502958347848e-03  8.4808494625829862e-03  7.2269735648060208e-03  6.1065680333643266e-03  5.1112821064062909e-03  4.2312194593141072e-03  3.4556814030633938e-03  2.7738510582120401e-03  2.1755702267693207e-03  1.6522036183326946e-03  1.1975871004336208e-03  8.0895628096921870e-04  4.8763281214927253e-04  2.3895211634996459e-04  7.0767965459683210e-05  -1.2119201631009585e-05  -1.8317543037712885e-05  1.9023818653739631e-06  -1.2787676402139301e-05  6.1843318524839084e-05  3.1608426503601018e-04  7.7170777490213037e-04  1.4139440169360447e-03  2.2049819835413191e-03  3.0955979660299842e-03  4.0334173027979153e-03  4.9683113076421943e-03  5.8563436555786009e-03  6.6624886668925640e-03  7.3622117817128520e-03  7.9419305722407910e-03  8.3984521141296214e-03  8.7375541965262916e-03  8.9719316135875738e-03  9.1187566610844463e-03  9.1970880775437899e-03  9.2253623721327647e-03  9.2191580136484329e-03  9.1893648843050287e-03  9.1409753913720502e-03  9.0725271745579344e-03  8.9761762048142114e-03  8.8383851520886583e-03  8.6410329148279008e-03  8.3627250537040010e-03  7.9800386197988044e-03  7.4685246350804733e-03  6.8033144544395342e-03  5.9592824756639750e-03  4.9110148305637298e-03  3.6328329425198988e-03  2.0985990595576878e-03  2.8126528859385947e-04  -1.8463378293773149e-03  -4.3099583653542521e-03  -7.1333483535826773e-03  -1.0338141939254699e-02  -1.3943489140585626e-02  -1.7961331061625417e-02  -2.2396288315877720e-02  -2.7245752574061800e-02  -3.2497919677921858e-02  -3.8135287226859903e-02  -4.4131945670934716e-02  -5.0451664540972302e-02  -5.7049723989978117e-02  -6.3873498167674445e-02  -7.0863429924577920e-02  -7.7953434055800366e-02  -8.5072625102669108e-02  -9.2147056774471936e-02  -9.9100735786817246e-02  -1.0585701870761463e-01  -1.1233980824989100e-01  -1.1847466514453364e-01  -1.2418975891143409e-01  -1.2941667529050899e-01  -1.3409108386080629e-01  -1.3815328298587384e-01  -1.4154865970252511e-01  -1.4422804155447905e-01  -1.4614814717387417e-01  -1.4727147060772264e-01  -1.4756797557285228e-01  -1.4701092821604655e-01  -1.4558219122186597e-01  -1.4327634503022671e-01  -1.4009326296326269e-01  -1.3604070459564677e-01  -1.3113588800977533e-01  -1.2540521122128861e-01  -1.1888496165256296e-01  -1.1162153087853607e-01  -1.0367166621088450e-01  -9.5102500521665953e-02  -8.5991387970291794e-02  -7.6425497935405734e-02  -6.6501098744020132e-02  -5.6322787415222439e-02  -4.6002137790958991e-02  -3.5655721408383551e-02  -2.5396324087948279e-02  -1.5336831371701158e-02  -5.6035174472314191e-03  3.6677216048461030e-03  1.2366832845872077e-02  2.0414840606680230e-02  2.7741561932444814e-02  3.4275363031649450e-02  3.9947076598208148e-02  4.4717468464014573e-02  4.8569828509154256e-02  5.1498998591672826e-02  5.3521739519738307e-02  5.4667091712475531e-02  5.4982919240459845e-02  5.4542212575793989e-02  5.3421650490761176e-02  5.1705613150174141e-02  4.9487897503377454e-02  4.6864208616043485e-02  4.3931650528962099e-02  4.0784338426991931e-02  3.7510878367173539e-02  3.4191734015384216e-02  3.0897445075944462e-02  2.7687621720330850e-02  2.4610014558651548e-02  2.1700392621673229e-02  1.8983619437322716e-02  1.6474948534105954e-02  1.4181256625166720e-02  1.2101917539743155e-02  1.0230469627523022e-02  8.5562548550056627e-03  7.0657089130269938e-03  5.7438687739933235e-03  4.5758719288134563e-03  3.5485274281276446e-03  2.6519099660104605e-03  1.8807624739496276e-03  1.2353482790166098e-03  7.2101498055641359e-04  3.4566448271275023e-04  1.1272418639126686e-04  1.1759726067902833e-05  -3.4991056948830621e-06  -2.3236149858815081e-05  1.1798672453608192e-04  5.2921241064766164e-04  1.1931078027568297e-03  2.0793127856888532e-03  3.1392413343215783e-03  4.3129511369703827e-03  5.5365391528735515e-03  6.7485399718995040e-03  7.8947556404127626e-03  8.9316179059268207e-03  9.8281035496922912e-03  1.0566288003170643e-02  1.1140674238809099e-02  1.1556501198824750e-02  1.1827281004581240e-02  1.1971832861920134e-02  1.2011109889218509e-02  1.1965066088738235e-02  1.1849771756683560e-02  1.1675179320461637e-02  1.1443575345439261e-02  1.1148794115644558e-02  1.0776354958818166e-02  1.0304326340498436e-02  9.7047358271243663e-03  8.9452403483487909e-03  7.9906997313390470e-03  6.8043762600618332e-03  5.3489007108513936e-03  3.5867805354057171e-03  1.4800709439813685e-03  -1.0096771207360111e-03  -3.9199110620150779e-03  -7.2860782870818579e-03  -1.1142361374146124e-02  -1.5519913606868840e-02  -2.0441638653310459e-02  -2.5920494756388284e-02  -3.1959458533330543e-02  -3.8554571353295326e-02  -4.5691634917914996e-02  -5.3342338468160014e-02  -6.1466218059090257e-02  -7.0008516356531630e-02  -7.8902694826178593e-02  -8.8072653798643499e-02  -9.7433522963741456e-02  -1.0689397712199494e-01  -1.1635828587606892e-01  -1.2572877027619697e-01  -1.3490795440580783e-01  -1.4380054623488364e-01  -1.5231521466537062e-01  -1.6036588467406282e-01  -1.6787277640965428e-01  -1.7476309133527662e-01  -1.8097141328421679e-01  -1.8643985536368388e-01  -1.9111800938947748e-01  -1.9496275469467156e-01  -1.9793796269742672e-01  -2.0001419741077356e-01  -2.0116824972009795e-01  -2.0138331880111343e-01  -2.0064674439088112e-01  -1.9895449227472348e-01  -1.9631132096251991e-01  -1.9272346343994076e-01  -1.8820266442097411e-01  -1.8276768606956795e-01  -1.7644313033229192e-01  -1.6926068941818545e-01  -1.6125929321797494e-01  -1.5248573674818935e-01  -1.4299508598232402e-01  -1.3285106030315849e-01  -1.2212625070241842e-01  -1.1090214711631179e-01  -9.9268957854627221e-02  -8.7325022371985958e-02  -7.5175921148987551e-02  -6.2932586733995599e-02  -5.0713539864205008e-02  -3.8639184483115346e-02  -2.6820302366586554e-02  -1.5356087353570884e-02  -4.3651338550669628e-03  6.0194576699684338e-03  1.5685131525272587e-02  2.4556225811478490e-02  3.2581366419501004e-02  3.9694718549723257e-02  4.5836547357404563e-02  5.0976079181862317e-02  5.5098126885271353e-02  5.8206481873522613e-02  6.0314198724135661e-02  6.1450221002928053e-02  6.1678220593417182e-02  6.1070474548981783e-02  5.9707754029137507e-02  5.7686021736058579e-02  5.5107639200246361e-02  5.2080763569848289e-02  4.8714415146616764e-02  4.5115097830998055e-02  4.1383126247659822e-02  3.7609462458696861e-02  3.3873573262479917e-02  3.0242044881660567e-02  2.6767825653935276e-02  2.3489886219786631e-02  2.0433881541587054e-02  1.7614778074894408e-02  1.5038171632799401e-02  1.2701398755133621e-02  1.0595910225607101e-02  8.7092850759370472e-03  7.0273416936892114e-03  5.5363357866273890e-03  4.2250471027377957e-03  3.0865894298808790e-03  2.1195170700742927e-03  1.3276533561460148e-03  7.1798519981116802e-04  2.9597431403642057e-04  5.9142635181320082e-05  -1.2227080169855024e-05  -3.2027310891567505e-05  1.6351295095274755e-04  7.0996619437123344e-04  1.5559824804160514e-03  2.6493603746029991e-03  3.9271468075684516e-03  5.3186226504870777e-03  6.7507191457003846e-03  8.1540984653762621e-03  9.4680976269599249e-03  1.0644193637879513e-02  1.1647871458686369e-02  1.2458986199593644e-02  1.3070805066024803e-02  1.3487969357090790e-02  1.3723660263747061e-02  1.3796243577045366e-02  1.3725696080929602e-02  1.3530020503834197e-02  1.3222142947554888e-02  1.2807393831495912e-02  1.2281739984510237e-02  1.1631099111049129e-02  1.0831611309468605e-02  9.8508242627250928e-03  8.6494356094092457e-03  7.1832336273157313e-03  5.4051230636637023e-03  3.2665735057683014e-03  7.1790482952958543e-04  -2.2905038521774377e-03  -5.8064686078413748e-03  -9.8763348858659141e-03  -1.4544827106571618e-02  -1.9849370412877005e-02  -2.5815643232629106e-02  -3.2459179943894023e-02  -3.9787797062766306e-02  -4.7797029196388875e-02  -5.6465943423932019e-02  -6.5755198170796905e-02  -7.5608267920796945e-02  -8.5953948106176667e-02  -9.6705851166156362e-02  -1.0776558128677155e-01  -1.1902535978267371e-01  -1.3037135989073892e-01  -1.4168729415404363e-01  -1.5285750423334721e-01  -1.6377004314230195e-01  -1.7431917035493352e-01  -1.8440732017948083e-01  -1.9394646702064630e-01  -2.0285889675816365e-01  -2.1107745240537462e-01  -2.1854531563958138e-01  -2.2521545732373760e-01  -2.3104983614694358e-01  -2.3601844925444468e-01  -2.4009831586804886e-01  -2.4327246083975396e-01  -2.4552896614147346e-01  -2.4686009298620284e-01  -2.4726168129234138e-01  -2.4673221320094124e-01  -2.4527446356390681e-01  -2.4289396921162024e-01  -2.3959517665579128e-01  -2.3538542500663770e-01  -2.3027573241458377e-01  -2.2427985065509512e-01  -2.1741589031266698e-01  -2.0970660466399210e-01  -2.0118047727491786e-01  -1.9187251340496572e-01  -1.8182515954856529e-01  -1.7108909232280195e-01  -1.5972389031309292e-01  -1.4779849095270339e-01  -1.3539134414606133e-01  -1.2259022836835211e-01  -1.0949160253043023e-01  -9.6200083006700174e-02  -8.2825495808216479e-02  -6.9481245161024718e-02  -5.6284718691526167e-02  -4.3359111804233186e-02  -3.0815031174513067e-02  -1.8750469857155876e-02  -7.2640805034920172e-03  3.5351007972583342e-03  1.3540863339396293e-02  2.2686032159237056e-02  3.0923468275856656e-02  3.8203825277004895e-02  4.4485620696310450e-02  4.9740721706098029e-02  5.3962982898567345e-02  5.7153792917166213e-02  5.9320106619879312e-02  6.0505167895193043e-02  6.0767537623278738e-02  6.0173895609909815e-02  5.8809579024978957e-02  5.6770517189898277e-02  5.4162778598512901e-02  5.1097978848924704e-02  4.7689305885573643e-02  4.4047231217379947e-02  4.0275478316699281e-02  3.6467634082696848e-02  3.2704494379393226e-02  2.9052816070827714e-02  2.5565078002850565e-02  2.2278488320502506e-02  1.9216924994460875e-02  1.6393685419903853e-02  1.3812482498980417e-02  1.1469852081880958e-02  9.3578064997430974e-03  7.4663731084288537e-03  5.7861931926747089e-03  4.3107959436673934e-03  3.0383038979694158e-03  1.9721899569203347e-03  1.1208172186667894e-03  4.9591614196618599e-04  1.1030779543577161e-04  -2.1886099724648722e-05  -3.9097412536609198e-05  1.9934735948894881e-04  8.5748434165647334e-04  1.8578166706052543e-03  3.1256491409631833e-03  4.5808399522375759e-03  6.1399397240468534e-03  7.7204052783871645e-03  9.2460648953916758e-03  1.0651710898178733e-02  1.1886222443208687e-02  1.2913982294964415e-02  1.3714695291819380e-02  1.4281847560594947e-02  1.4620126815572957e-02  1.4742080586212040e-02  1.4664392242917610e-02  1.4403900269771779e-02  1.3973860912457446e-02  1.3380723784875204e-02  1.2621503397985701e-02  1.1682205892223945e-02  1.0537421283002460e-02  9.1510356571065567e-03  7.4778400394149326e-03  5.4659195476477818e-03  3.0589020687425521e-03  1.9736595863183799e-04  -3.1786503132461216e-03  -7.1273797280801731e-03  -1.1706546050617458e-02  -1.6970375630976163e-02  -2.2962310237898693e-02  -2.9713669335491556e-02  -3.7248064849817797e-02  -4.5578299759642074e-02  -5.4698757376595825e-02  -6.4582070325838403e-02  -7.5180271096675882e-02  -8.6425514193331998e-02  -9.8230208489530110e-02  -1.1048957876067229e-01  -1.2308473889175305e-01  -1.3588739641860456e-01  -1.4876414671850538e-01  -1.6158124256355888e-01  -1.7420893900096773e-01  -1.8652528807942087e-01  -1.9841911940525830e-01  -2.0979204289229128e-01  -2.2055956422992140e-01  -2.3065132555870330e-01  -2.4001063038397064e-01  -2.4859340831600699e-01  -2.5636678682891673e-01  -2.6330744004764417e-01  -2.6939985414335688e-01  -2.7463463052127274e-01  -2.7900690866804345e-01  -2.8251496819477157e-01  -2.8515904740346781e-01  -2.8694038511896458e-01  -2.8786052223169800e-01  -2.8792074587239713e-01  -2.8712230567926694e-01  -2.8546515957977836e-01  -2.8294727763526467e-01  -2.7956729957386928e-01  -2.7532477433990743e-01  -2.7022018994596109e-01  -2.6425612234379964e-01  -2.5743785082645371e-01  -2.4977454347367198e-01  -2.4128025569271200e-01  -2.3197515212112446e-01  -2.2188667461315845e-01  -2.1105071609276943e-01  -1.9951267691155797e-01  -1.8732833971408855e-01  -1.7456446646119322e-01  -1.6129901137963720e-01  -1.4762090786692264e-01  -1.3362901400705379e-01  -1.1943104856994476e-01  -1.0514212366574643e-01  -9.0882450017990266e-02  -7.6771664458794964e-02  -6.2929779158177310e-02  -4.9474481859366308e-02  -3.6518564955699558e-02  -2.4160251672369515e-02  -1.2482802491775448e-02  -1.5695943459463717e-03  8.5023425492043326e-03  1.7673139948971388e-02  2.5901592925985470e-02  3.3158438560599753e-02  3.9416565950791974e-02  4.4661072341418466e-02  4.8886286917794883e-02  5.2086097551224245e-02  5.4283778505085589e-02  5.5521937535825565e-02  5.5850611440020986e-02  5.5339345600268389e-02  5.4071520648154847e-02  5.2143711656711576e-02  4.9662170411172442e-02  4.6738787230350985e-02  4.3486543205507440e-02  4.0014845772209338e-02  3.6425403125734938e-02  3.2808814894731600e-02  2.9241975378743689e-02  2.5787694768953137e-02  2.2493537664848757e-02  1.9392371241737073e-02  1.6505399325494514e-02  1.3843609788620745e-02  1.1410122839198426e-02  9.2031560095235596e-03  7.2188739619738805e-03  5.4542404389592508e-03  3.9095431951565816e-03  2.5904941259812311e-03  1.5097875640181419e-03  6.8887306691819061e-04  1.5923160938684572e-04  -3.1207888987355980e-05  -4.4912137445885382e-05  2.2859290077078219e-04  9.8007706171646569e-04  2.1109900050595579e-03  3.5249813846277961e-03  5.1232136393373267e-03  6.8076119521251720e-03  8.4850810575024284e-03  1.0072655602111250e-02  1.1501608295863613e-02  1.2719908850271088e-02  1.3692810597459901e-02  1.4401746233259410e-02  1.4841880873937138e-02  1.5018698745856110e-02  1.4944054280945918e-02  1.4631871074194936e-02  1.4093900777734147e-02  1.3335984138436764e-02  1.2354748380630214e-02  1.1135261779452571e-02  9.6499893870625811e-03  7.8589426309213332e-03  5.7112980216791984e-03  3.1477072816016097e-03  1.0246838817342088e-04  -3.4928261347368927e-03  -7.7061534282794183e-03  -1.2605671576040721e-02  -1.8254924289452527e-02  -2.4704557261560962e-02  -3.1994978885828140e-02  -4.0159362131103653e-02  -4.9216045965645959e-02  -5.9160167013403896e-02  -6.9962995327062377e-02  -8.1572181068210722e-02  -9.3910644521047359e-02  -1.0687770425971047e-01  -1.2035231005501464e-01  -1.3419781678339876e-01  -1.48