<?xml version="1.0"?>
<VTKFile type="UnstructuredGrid"  version="0.1"  >
<UnstructuredGrid>
<Piece  NumberOfPoints="16641" NumberOfCells="16384">
<Points>
<DataArray  type="Float64"  NumberOfComponents="3"  format="ascii">0 0 0  0.0078125 0 0  0.015625 0 0  0.0234375 0 0  0.03125 0 0  0.0390625 0 0  0.046875 0 0  0.0546875 0 0  0.0625 0 0  0.0703125 0 0  0.078125 0 0  0.0859375 0 0  0.09375 0 0  0.1015625 0 0  0.109375 0 0  0.1171875 0 0  0.125 0 0  0.1328125 0 0  0.140625 0 0  0.1484375 0 0  0.15625 0 0  0.1640625 0 0  0.171875 0 0  0.1796875 0 0  0.1875 0 0  0.1953125 0 0  0.203125 0 0  0.2109375 0 0  0.21875 0 0  0.2265625 0 0  0.234375 0 0  0.2421875 0 0  0.25 0 0  0.2578125 0 0  0.265625 0 0  0.2734375 0 0  0.28125 0 0  0.2890625 0 0  0.296875 0 0  0.3046875 0 0  0.3125 0 0  0.3203125 0 0  0.328125 0 0  0.3359375 0 0  0.34375 0 0  0.3515625 0 0  0.359375 0 0  0.3671875 0 0  0.375 0 0  0.3828125 0 0  0.390625 0 0  0.3984375 0 0  0.40625 0 0  0.4140625 0 0  0.421875 0 0  0.4296875 0 0  0.4375 0 0  0.4453125 0 0  0.453125 0 0  0.4609375 0 0  0.46875 0 0  0.4765625 0 0  0.484375 0 0  0.4921875 0 0  0.5 0 0  0.5078125 0 0  0.515625 0 0  0.5234375 0 0  0.53125 0 0  0.5390625 0 0  0.546875 0 0  0.5546875 0 0  0.5625 0 0  0.5703125 0 0  0.578125 0 0  0.5859375 0 0  0.59375 0 0  0.6015625 0 0  0.609375 0 0  0.6171875 0 0  0.625 0 0  0.6328125 0 0  0.640625 0 0  0.6484375 0 0  0.65625 0 0  0.6640625 0 0  0.671875 0 0  0.6796875 0 0  0.6875 0 0  0.6953125 0 0  0.703125 0 0  0.7109375 0 0  0.71875 0 0  0.7265625 0 0  0.734375 0 0  0.7421875 0 0  0.75 0 0  0.7578125 0 0  0.765625 0 0  0.7734375 0 0  0.78125 0 0  0.7890625 0 0  0.796875 0 0  0.8046875 0 0  0.8125 0 0  0.8203125 0 0  0.828125 0 0  0.8359375 0 0  0.84375 0 0  0.8515625 0 0  0.859375 0 0  0.8671875 0 0  0.875 0 0  0.8828125 0 0  0.890625 0 0  0.8984375 0 0  0.90625 0 0  0.9140625 0 0  0.921875 0 0  0.9296875 0 0  0.9375 0 0  0.9453125 0 0  0.953125 0 0  0.9609375 0 0  0.96875 0 0  0.9765625 0 0  0.984375 0 0  0.9921875 0 0  1 0 0  0 0.0078125 0  0.0078125 0.0078125 0  0.015625 0.0078125 0  0.0234375 0.0078125 0  0.03125 0.0078125 0  0.0390625 0.0078125 0  0.046875 0.0078125 0  0.0546875 0.0078125 0  0.0625 0.0078125 0  0.0703125 0.0078125 0  0.078125 0.0078125 0  0.0859375 0.0078125 0  0.09375 0.0078125 0  0.1015625 0.0078125 0  0.109375 0.0078125 0  0.1171875 0.0078125 0  0.125 0.0078125 0  0.1328125 0.0078125 0  0.140625 0.0078125 0  0.1484375 0.0078125 0  0.15625 0.0078125 0  0.1640625 0.0078125 0  0.171875 0.0078125 0  0.1796875 0.0078125 0  0.1875 0.0078125 0  0.1953125 0.0078125 0  0.203125 0.0078125 0  0.2109375 0.0078125 0  0.21875 0.0078125 0  0.2265625 0.0078125 0  0.234375 0.0078125 0  0.2421875 0.0078125 0  0.25 0.0078125 0  0.2578125 0.0078125 0  0.265625 0.0078125 0  0.2734375 0.0078125 0  0.28125 0.0078125 0  0.2890625 0.0078125 0  0.296875 0.0078125 0  0.3046875 0.0078125 0  0.3125 0.0078125 0  0.3203125 0.0078125 0  0.328125 0.0078125 0  0.3359375 0.0078125 0  0.34375 0.0078125 0  0.3515625 0.0078125 0  0.359375 0.0078125 0  0.3671875 0.0078125 0  0.375 0.0078125 0  0.3828125 0.0078125 0  0.390625 0.0078125 0  0.3984375 0.0078125 0  0.40625 0.0078125 0  0.4140625 0.0078125 0  0.421875 0.0078125 0  0.4296875 0.0078125 0  0.4375 0.0078125 0  0.4453125 0.0078125 0  0.453125 0.0078125 0  0.4609375 0.0078125 0  0.46875 0.0078125 0  0.4765625 0.0078125 0  0.484375 0.0078125 0  0.4921875 0.0078125 0  0.5 0.0078125 0  0.5078125 0.0078125 0  0.515625 0.0078125 0  0.5234375 0.0078125 0  0.53125 0.0078125 0  0.5390625 0.0078125 0  0.546875 0.0078125 0  0.5546875 0.0078125 0  0.5625 0.0078125 0  0.5703125 0.0078125 0  0.578125 0.0078125 0  0.5859375 0.0078125 0  0.59375 0.0078125 0  0.6015625 0.0078125 0  0.609375 0.0078125 0  0.6171875 0.0078125 0  0.625 0.0078125 0  0.6328125 0.0078125 0  0.640625 0.0078125 0  0.6484375 0.0078125 0  0.65625 0.0078125 0  0.6640625 0.0078125 0  0.671875 0.0078125 0  0.6796875 0.0078125 0  0.6875 0.0078125 0  0.6953125 0.0078125 0  0.703125 0.0078125 0  0.7109375 0.0078125 0  0.71875 0.0078125 0  0.7265625 0.0078125 0  0.734375 0.0078125 0  0.7421875 0.0078125 0  0.75 0.0078125 0  0.7578125 0.0078125 0  0.765625 0.0078125 0  0.7734375 0.0078125 0  0.78125 0.0078125 0  0.7890625 0.0078125 0  0.796875 0.0078125 0  0.8046875 0.0078125 0  0.8125 0.0078125 0  0.8203125 0.0078125 0  0.828125 0.0078125 0  0.8359375 0.0078125 0  0.84375 0.0078125 0  0.8515625 0.0078125 0  0.859375 0.0078125 0  0.8671875 0.0078125 0  0.875 0.0078125 0  0.8828125 0.0078125 0  0.890625 0.0078125 0  0.8984375 0.0078125 0  0.90625 0.0078125 0  0.9140625 0.0078125 0  0.921875 0.0078125 0  0.9296875 0.0078125 0  0.9375 0.0078125 0  0.9453125 0.0078125 0  0.953125 0.0078125 0  0.9609375 0.0078125 0  0.96875 0.0078125 0  0.9765625 0.0078125 0  0.984375 0.0078125 0  0.9921875 0.0078125 0  1 0.0078125 0  0 0.015625 0  0.0078125 0.015625 0  0.015625 0.015625 0  0.0234375 0.015625 0  0.03125 0.015625 0  0.0390625 0.015625 0  0.046875 0.015625 0  0.0546875 0.015625 0  0.0625 0.015625 0  0.0703125 0.015625 0  0.078125 0.015625 0  0.0859375 0.015625 0  0.09375 0.015625 0  0.1015625 0.015625 0  0.109375 0.015625 0  0.1171875 0.015625 0  0.125 0.015625 0  0.1328125 0.015625 0  0.140625 0.015625 0  0.1484375 0.015625 0  0.15625 0.015625 0  0.1640625 0.015625 0  0.171875 0.015625 0  0.1796875 0.015625 0  0.1875 0.015625 0  0.1953125 0.015625 0  0.203125 0.015625 0  0.2109375 0.015625 0  0.21875 0.015625 0  0.2265625 0.015625 0  0.234375 0.015625 0  0.2421875 0.015625 0  0.25 0.015625 0  0.2578125 0.015625 0  0.265625 0.015625 0  0.2734375 0.015625 0  0.28125 0.015625 0  0.2890625 0.015625 0  0.296875 0.015625 0  0.3046875 0.015625 0  0.3125 0.015625 0  0.3203125 0.015625 0  0.328125 0.015625 0  0.3359375 0.015625 0  0.34375 0.015625 0  0.3515625 0.015625 0  0.359375 0.015625 0  0.3671875 0.015625 0  0.375 0.015625 0  0.3828125 0.015625 0  0.390625 0.015625 0  0.3984375 0.015625 0  0.40625 0.015625 0  0.4140625 0.015625 0  0.421875 0.015625 0  0.4296875 0.015625 0  0.4375 0.015625 0  0.4453125 0.015625 0  0.453125 0.015625 0  0.4609375 0.015625 0  0.46875 0.015625 0  0.4765625 0.015625 0  0.484375 0.015625 0  0.4921875 0.015625 0  0.5 0.015625 0  0.5078125 0.015625 0  0.515625 0.015625 0  0.5234375 0.015625 0  0.53125 0.015625 0  0.5390625 0.015625 0  0.546875 0.015625 0  0.5546875 0.015625 0  0.5625 0.015625 0  0.5703125 0.015625 0  0.578125 0.015625 0  0.5859375 0.015625 0  0.59375 0.015625 0  0.6015625 0.015625 0  0.609375 0.015625 0  0.6171875 0.015625 0  0.625 0.015625 0  0.6328125 0.015625 0  0.640625 0.015625 0  0.6484375 0.015625 0  0.65625 0.015625 0  0.6640625 0.015625 0  0.671875 0.015625 0  0.6796875 0.015625 0  0.6875 0.015625 0  0.6953125 0.015625 0  0.703125 0.015625 0  0.7109375 0.015625 0  0.71875 0.015625 0  0.7265625 0.015625 0  0.734375 0.015625 0  0.7421875 0.015625 0  0.75 0.015625 0  0.7578125 0.015625 0  0.765625 0.015625 0  0.7734375 0.015625 0  0.78125 0.015625 0  0.7890625 0.015625 0  0.796875 0.015625 0  0.8046875 0.015625 0  0.8125 0.015625 0  0.8203125 0.015625 0  0.828125 0.015625 0  0.8359375 0.015625 0  0.84375 0.015625 0  0.8515625 0.015625 0  0.859375 0.015625 0  0.8671875 0.015625 0  0.875 0.015625 0  0.8828125 0.015625 0  0.890625 0.015625 0  0.8984375 0.015625 0  0.90625 0.015625 0  0.9140625 0.015625 0  0.921875 0.015625 0  0.9296875 0.015625 0  0.9375 0.015625 0  0.9453125 0.015625 0  0.953125 0.015625 0  0.9609375 0.015625 0  0.96875 0.015625 0  0.9765625 0.015625 0  0.984375 0.015625 0  0.9921875 0.015625 0  1 0.015625 0  0 0.0234375 0  0.0078125 0.0234375 0  0.015625 0.0234375 0  0.0234375 0.0234375 0  0.03125 0.0234375 0  0.0390625 0.0234375 0  0.046875 0.0234375 0  0.0546875 0.0234375 0  0.0625 0.0234375 0  0.0703125 0.0234375 0  0.078125 0.0234375 0  0.0859375 0.0234375 0  0.09375 0.0234375 0  0.1015625 0.0234375 0  0.109375 0.0234375 0  0.1171875 0.0234375 0  0.125 0.0234375 0  0.1328125 0.0234375 0  0.140625 0.0234375 0  0.1484375 0.0234375 0  0.15625 0.0234375 0  0.1640625 0.0234375 0  0.171875 0.0234375 0  0.1796875 0.0234375 0  0.1875 0.0234375 0  0.1953125 0.0234375 0  0.203125 0.0234375 0  0.2109375 0.0234375 0  0.21875 0.0234375 0  0.2265625 0.0234375 0  0.234375 0.0234375 0  0.2421875 0.0234375 0  0.25 0.0234375 0  0.2578125 0.0234375 0  0.265625 0.0234375 0  0.2734375 0.0234375 0  0.28125 0.0234375 0  0.2890625 0.0234375 0  0.296875 0.0234375 0  0.3046875 0.0234375 0  0.3125 0.0234375 0  0.3203125 0.0234375 0  0.328125 0.0234375 0  0.3359375 0.0234375 0  0.34375 0.0234375 0  0.3515625 0.0234375 0  0.359375 0.0234375 0  0.3671875 0.0234375 0  0.375 0.0234375 0  0.3828125 0.0234375 0  0.390625 0.0234375 0  0.3984375 0.0234375 0  0.40625 0.0234375 0  0.4140625 0.0234375 0  0.421875 0.0234375 0  0.4296875 0.0234375 0  0.4375 0.0234375 0  0.4453125 0.0234375 0  0.453125 0.0234375 0  0.4609375 0.0234375 0  0.46875 0.0234375 0  0.4765625 0.0234375 0  0.484375 0.0234375 0  0.4921875 0.0234375 0  0.5 0.0234375 0  0.5078125 0.0234375 0  0.515625 0.0234375 0  0.5234375 0.0234375 0  0.53125 0.0234375 0  0.5390625 0.0234375 0  0.546875 0.0234375 0  0.5546875 0.0234375 0  0.5625 0.0234375 0  0.5703125 0.0234375 0  0.578125 0.0234375 0  0.5859375 0.0234375 0  0.59375 0.0234375 0  0.6015625 0.0234375 0  0.609375 0.0234375 0  0.6171875 0.0234375 0  0.625 0.0234375 0  0.6328125 0.0234375 0  0.640625 0.0234375 0  0.6484375 0.0234375 0  0.65625 0.0234375 0  0.6640625 0.0234375 0  0.671875 0.0234375 0  0.6796875 0.0234375 0  0.6875 0.0234375 0  0.6953125 0.0234375 0  0.703125 0.0234375 0  0.7109375 0.0234375 0  0.71875 0.0234375 0  0.7265625 0.0234375 0  0.734375 0.0234375 0  0.7421875 0.0234375 0  0.75 0.0234375 0  0.7578125 0.0234375 0  0.765625 0.0234375 0  0.7734375 0.0234375 0  0.78125 0.0234375 0  0.7890625 0.0234375 0  0.796875 0.0234375 0  0.8046875 0.0234375 0  0.8125 0.0234375 0  0.8203125 0.0234375 0  0.828125 0.0234375 0  0.8359375 0.0234375 0  0.84375 0.0234375 0  0.8515625 0.0234375 0  0.859375 0.0234375 0  0.8671
[...]
<PointData  Scalars="v_sol"> 
<DataArray  type="Float64"  Name="v_sol"  format="ascii">-1.1420359726127789e-06  3.1450017829625880e-06  1.3431409273830808e-05  2.4909755130926716e-05  3.4609921625240751e-05  4.1648910020209773e-05  4.5771931275406989e-05  4.7056121763694727e-05  4.5790010354283098e-05  4.2425414806529425e-05  3.7522384652532093e-05  3.1689777421654607e-05  2.5525281153792929e-05  1.9562867271288453e-05  1.4232874456681763e-05  9.8370303194318127e-06  6.5377275047122479e-06  4.3611694485885744e-06  3.2085016152798418e-06  2.8769286983656701e-06  3.0907691534397748e-06  3.5263399001609836e-06  3.8550685235542882e-06  3.7710480862201601e-06  3.0208431788920681e-06  1.4194413749850151e-06  -1.1476487579828782e-06  -4.7310547812609036e-06  -9.3414707313717230e-06  -1.4971823528414441e-05  -2.1625508703328695e-05  -2.9328606064896173e-05  -3.8130792657662837e-05  -4.8080946890643843e-05  -5.9217133897287090e-05  -7.1621411102067425e-05  -8.5359984302133609e-05  -1.0043178669566097e-04  -1.1672749404955152e-04  -1.3401935821365170e-04  -1.5251688458981568e-04  -1.7177869638704781e-04  -1.9195448116727300e-04  -2.1267085400140132e-04  -2.3312190509768520e-04  -2.5325556382291693e-04  -2.7261143172481770e-04  -2.9079185117683500e-04  -3.0725086625030523e-04  -3.2158294258896239e-04  -3.3363040937397912e-04  -3.4282244342296301e-04  -3.4880898966719708e-04  -3.5126124395689381e-04  -3.4990964412995746e-04  -3.4453589356978135e-04  -3.3497803611688942e-04  -3.2113038486881708e-04  -3.0294355723829898e-04  -2.8042375117803630e-04  -2.5363217008080323e-04  -2.2268474416181405e-04  -1.8775582120707216e-04  -1.4906376299267751e-04  -1.0695084930600184e-04  -6.1595383908677129e-05  -1.4100273728224437e-05  3.6699450290429078e-05  8.9152639439254126e-05  1.4265658358923462e-04  1.9668429328002172e-04  2.5042371689313958e-04  3.0307525447982597e-04  3.5375896493052564e-04  4.0156596735141359e-04  4.4556501240176352e-04  4.8483119047376889e-04  5.1847237572180606e-04  5.4566686528908842e-04  5.6568446362109518e-04  5.7801903783939875e-04  5.8237482371798410e-04  5.7827589387725200e-04  5.6401239331016462e-04  5.4060021815878175e-04  5.1042725749801145e-04  4.7567672502023880e-04  4.3348903274826478e-04  3.8488560705646376e-04  3.3086793994403254e-04  2.7525623053135397e-04  2.1935159845626315e-04  1.6241069640553170e-04  1.0694562057912047e-04  5.4219730443754375e-05  4.4854711606929120e-06  -3.9415600061411375e-05  -7.8115404977939347e-05  -1.1187403208918700e-04  -1.3909934451296504e-04  -1.6063690488497942e-04  -1.7612041814025036e-04  -1.8607556488793556e-04  -1.9097030164998171e-04  -1.9141285273893227e-04  -1.8802820047654701e-04  -1.8152042605670726e-04  -1.7257537825605336e-04  -1.6191395723467761e-04  -1.5005707216006299e-04  -1.3755737619261890e-04  -1.2489189749843058e-04  -1.1246291109273997e-04  -1.0054515687107350e-04  -8.9319515672375762e-05  -7.8954711934637819e-05  -6.9531383819306858e-05  -6.1076444027236701e-05  -5.3558274618233181e-05  -4.6874333025598680e-05  -4.0845203179959395e-05  -3.5207810195705783e-05  -2.9624904016725867e-05  -2.3723019206222343e-05  -1.7188251571943997e-05  -9.9817400305862741e-06  -2.8214598360770144e-06  1.9910018339799848e-06  1.3922797183216281e-06  1.0820890833850156e-05  -5.1153746952001772e-06  -6.5160731826002406e-05  -1.2751411603267342e-04  -1.7895726223255909e-04  -2.1578666998305952e-04  -2.3713069804321335e-04  -2.4352198508743826e-04  -2.3655056918032370e-04  -2.1863972573406902e-04  -1.9277585675814301e-04  -1.6219077206518735e-04  -1.3004154065510335e-04  -9.9132084922881524e-05  -7.1705935097743872e-05  -4.9320602593638889e-05  -3.2799605752169124e-05  -2.2252188133878037e-05  -1.7140161358991756e-05  -1.6389775658958601e-05  -1.8540562334465128e-05  -2.1900803486049576e-05  -2.4747186661178863e-05  -2.5489985534975866e-05  -2.2819814452527375e-05  -1.5796916044277978e-05  -3.8664240988482323e-06  1.3198314982433139e-05  3.5410667391904356e-05  6.2705259088249868e-05  9.5065848636612547e-05  1.3260268295126106e-04  1.7557657805164392e-04  2.2429788593845905e-04  2.7905759663895459e-04  3.4020757007944007e-04  4.0808954189317957e-04  4.8282579325359566e-04  5.6401765542446957e-04  6.5098625043752379e-04  7.4379743767554905e-04  8.4128026140961717e-04  9.4313612532402461e-04  1.0477192882543582e-03  1.1524696797221388e-03  1.2560152751276477e-03  1.3564530898915808e-03  1.4516167550011378e-03  1.5393071278017817e-03  1.6174944798364379e-03  1.6841287442610868e-03  1.7371038153686945e-03  1.7744386754550445e-03  1.7943868465636740e-03  1.7954333815353731e-03  1.7763076133985659e-03  1.7359985131066898e-03  1.6737621729150636e-03  1.5891248570047065e-03  1.4818840855906875e-03  1.3521106469787908e-03  1.2001547304145628e-03  1.0266558066051000e-03  8.3257282669873872e-04  6.1918871810195562e-04  3.8795540674594161e-04  1.4179280143987539e-04  -1.1917890402496509e-04  -3.9254291754093414e-04  -6.7390368412211952e-04  -9.5989633372160852e-04  -1.2464507352018656e-03  -1.5291072428643500e-03  -1.8030072774523188e-03  -2.0629841877853120e-03  -2.3036684686999743e-03  -2.5196358575827445e-03  -2.7055897086991593e-03  -2.8565784561253825e-03  -2.9682639445580616e-03  -3.0371453197743964e-03  -3.0603659666780091e-03  -3.0352323697058884e-03  -2.9583370630078061e-03  -2.8338617080424654e-03  -2.6704312709350374e-03  -2.4734869387140674e-03  -2.2401548365453931e-03  -1.9752378577022941e-03  -1.6865992869197852e-03  -1.3871805173490581e-03  -1.0849167241152482e-03  -7.8370494005150634e-04  -4.9211615365061666e-04  -2.1653410732335932e-04  3.7647578091085710e-05  2.6310382433661930e-04  4.6048001225362805e-04  6.2812169661736453e-04  7.6300846797707953e-04  8.6658041064955921e-04  9.3927617970128864e-04  9.8345372961922920e-04  1.0018145670163696e-03  9.9770434465555179e-04  9.7466833912875507e-04  9.3636893642191335e-04  8.8643888189854998e-04  8.2836173010033209e-04  7.6504809378585966e-04  6.9917202567442783e-04  6.3303596688773849e-04  5.6853900194486903e-04  5.0701963767624020e-04  4.4940737857580268e-04  3.9643338877033072e-04  3.4847738526093825e-04  3.0563900821019204e-04  2.6772844957661889e-04  2.3420467381312759e-04  2.0412532999800374e-04  1.7610273524445617e-04  1.4832927423255200e-04  1.1874257950222992e-04  8.5468482376427690e-05  4.7846969098489542e-05  8.8548249326459733e-06  -1.8431089377004777e-05  -6.2278743249278362e-06  2.1148295793295383e-05  -1.0040589317927379e-04  -3.2332923930497511e-04  -5.5544609240996197e-04  -7.5149473954417927e-04  -8.9405406354516840e-04  -9.7741375439455280e-04  -1.0024644160974369e-03  -9.7477550687356872e-04  -9.0340230969627718e-04  -7.9970595352696090e-04  -6.7609911839444051e-04  -5.4481592778398964e-04  -4.1683548893381819e-04  -3.0105373055860490e-04  -2.0374919236592948e-04  -1.2833922137642849e-04  -7.5395124429224552e-05  -4.2884154312304225e-05  -2.6584134297292029e-05  -2.0626408473890629e-05  -1.8224951039702845e-05  -1.2380317079474945e-05  3.4207706641221991e-06  3.4631200147842860e-05  8.5289817787353870e-05  1.5794726283684441e-04  2.5386726971634086e-04  3.7346230239864011e-04  5.1680747409571970e-04  6.8399204386485600e-04  8.7535121508920113e-04  1.0916349033598743e-03  1.3340646765744983e-03  1.6036129897922366e-03  1.9003326089356172e-03  2.2240771766903521e-03  2.5746945109890802e-03  2.9505959224009888e-03  3.3484048013039270e-03  3.7622403027497177e-03  4.1873169039797816e-03  4.6176976516428443e-03  5.0464183831624787e-03  5.4653337609520992e-03  5.8656993188351382e-03  6.2385250421288273e-03  6.5747639037279518e-03  6.8655846234446163e-03  7.1029143466147422e-03  7.2795407638530044e-03  7.3886577253966367e-03  7.4245933300499259e-03  7.3828740071768097e-03  7.2602335220123332e-03  7.0545892535563660e-03  6.7649993567952330e-03  6.3915985018985003e-03  5.9355235824131974e-03  5.3988410474417993e-03  4.7844865297257261e-03  4.0962256177240535e-03  3.3386412885729562e-03  2.5171316940465825e-03  1.6379428902932721e-03  7.0842484672263930e-04  -2.6519880004001402e-04  -1.2751893274778583e-03  -2.3091544832291471e-03  -3.3563830937633713e-03  -4.4046740983332902e-03  -5.4408267209134628e-03  -6.4505654282251065e-03  -7.4187278911387504e-03  -8.3294601424361049e-03  -9.1665162162415017e-03  -9.9136412660292290e-03  -1.0555045485972069e-02  -1.1075959277906430e-02  -1.1463236536602188e-02  -1.1705969702816624e-02  -1.1795719365048385e-02  -1.1726421192516729e-02  -1.1494989522145439e-02  -1.1102548666878785e-02  -1.0555622496673191e-02  -9.8680374747642016e-03  -9.0637446538636181e-03  -8.1597897587734006e-03  -7.1715012352377488e-03  -6.1153059746747000e-03  -5.0190524428246706e-03  -3.9132158728173482e-03  -2.8198700188344274e-03  -1.7605815695326415e-03  -7.5701107459548802e-04  1.7073420218735138e-04  1.0030314876311197e-03  1.7335210861650322e-03  2.3561319185708223e-03  2.8636603764516455e-03  3.2569435792860180e-03  3.5384597537190254e-03  3.7148730569165748e-03  3.7952704020994717e-03  3.7908335689427882e-03  3.7141640602565023e-03  3.5785731935506306e-03  3.3974197004324204e-03  3.1834470175774779e-03  2.9483927500048961e-03  2.7026141747517676e-03  2.4545815878914972e-03  2.2113314687346908e-03  1.9786056472639686e-03  1.7603655644486055e-03  1.5592586608749216e-03  1.3766081997425295e-03  1.2123061466067313e-03  1.0647261286520888e-03  9.3055945582070027e-04  8.0477629238883417e-04  6.8086899053446137e-04  5.5167342643491725e-04  4.1123870124162458e-04  2.5862226549805276e-04  1.0542184101875451e-04  -1.0012604669748354e-05  -1.8243714787413135e-05  2.1452944246487878e-05  -3.2018879088253313e-04  -7.7267314717905712e-04  -1.2256168683256077e-03  -1.6087098619727213e-03  -1.8879611041675484e-03  -2.0502481873849875e-03  -2.0960112577391361e-03  -2.0355676449164508e-03  -1.8864736992051704e-03  -1.6710160963294095e-03  -1.4136713012217080e-03  -1.1386711222840227e-03  -8.6787370786112260e-04  -6.1909973607745942e-04  -4.0501147604909618e-04  -2.3255551262789731e-04  -1.0291838684874921e-04  -1.1945445762864917e-05  4.9097194708177540e-05  9.2286998813829595e-05  1.3169070317972526e-04  1.8187366311548826e-04  2.5645755305546473e-04  3.6694274402339599e-04  5.2198631249275509e-04  7.2727420473269269e-04  9.8593459160893409e-04  1.2992105764049054e-03  1.6674128067419335e-03  2.0910484454343160e-03  2.5709966874700885e-03  3.1079473297161739e-03  3.7025301550862376e-03  4.3560978035350464e-03  5.0682095427470875e-03  5.8349173670271641e-03  6.6493718370525352e-03  7.5045494519805165e-03  8.3905342130412928e-03  9.2943879734751680e-03  1.0201003702246763e-02  1.1093347770794426e-02  1.1953985947885682e-02  1.2764971548118953e-02  1.3506749024015356e-02  1.4160594339243429e-02  1.4709048804868646e-02  1.5136465739461659e-02  1.5429297423330953e-02  1.5576381256212544e-02  1.5569413679216425e-02  1.5402697790474765e-02  1.5073238465826823e-02  1.4580567382914945e-02  1.3926501332812763e-02  1.3114864207779024e-02  1.2151200543067465e-02  1.1042503793210161e-02  9.7969802917296910e-03  8.4238635260257769e-03  6.9332871618527784e-03  5.3362172209970868e-03  3.6444420609598391e-03  1.8705611725233016e-03  2.7499088896176724e-05  -1.8711839362247531e-03  -3.8067293347573603e-03  -5.7628019074195316e-03  -7.7214643993863477e-03  -9.6628712753651057e-03  -1.1565812647806888e-02  -1.3407622610726502e-02  -1.5164339414456452e-02  -1.6810974531291656e-02  -1.8321902877491362e-02  -1.9671393811451190e-02  -2.0834275020133994e-02  -2.1786709861073655e-02  -2.2507047643420878e-02  -2.2976633669240104e-02  -2.3180760474145624e-02  -2.3109952661213608e-02  -2.2761323838901899e-02  -2.2133757150976010e-02  -2.1231841538450747e-02  -2.0071742915123932e-02  -1.8680285565663937e-02  -1.7088219701333719e-02  -1.5328422392177601e-02  -1.3437813213259760e-02  -1.1450190911856646e-02  -9.4027643072139983e-03  -7.3376377234380700e-03  -5.2985474731005013e-03  -3.3250974667742299e-03  -1.4509059524904044e-03  2.8921958077818635e-04  1.8608286778364520e-03  3.2467170074865124e-03  4.4349736978628257e-03  5.4130127817428337e-03  6.1791325178339948e-03  6.7366243157633530e-03  7.0955103031523576e-03  7.2712043795313168e-03  7.2835023675822310e-03  7.1553804497401976e-03  6.9115863839779180e-03  6.5775289194697053e-03  6.1777051197104017e-03  5.7347090456805021e-03  5.2686928772167456e-03  4.7968476289223924e-03  4.3329377343224850e-03  3.8880969578593996e-03  3.4702429979333246e-03  3.0840907254163813e-03  2.7312125543794219e-03  2.4097595431027971e-03  2.1143230407001138e-03  1.8359946629556475e-03  1.5630281457416041e-03  1.2825907658110063e-03  9.8433416928019957e-04  6.6689538675585632e-04  3.4894665429673099e-04  8.6719256987662481e-05  -2.4553941799070450e-05  1.7071960723238451e-05  -6.5110198414515096e-04  -1.3974658123809991e-03  -2.1087868619853573e-03  -2.7016510159743770e-03  -3.1293363464516668e-03  -3.3720386075803948e-03  -3.4302149620203679e-03  -3.3198639260288601e-03  -3.0684422803829146e-03  -2.7108195120102339e-03  -2.2852396598302214e-03  -1.8295145571714500e-03  -1.3777188990225582e-03  -9.5759332563717333e-04  -5.8877497951432460e-04  -2.8184893479262516e-04  -3.8251212302286330e-05  1.4922649535715709e-04  2.9505875750805938e-04  4.1913916021531753e-04  5.4459644572164997e-04  6.9532526226406951e-04  8.9363792083174708e-04  1.1584088579025735e-03  1.5039406348030129e-03  1.9396173460034195e-03  2.4706382221732844e-03  3.0996350617985774e-03  3.8274787253180591e-03  4.6538245811042029e-03  5.5794042868218003e-03  6.6053117331389176e-03  7.7296660853102273e-03  8.9467016363587136e-03  1.0249847856272821e-02  1.1628533529219906e-02  1.3067139972795841e-02  1.4545403276537376e-02  1.6040335607801350e-02  1.7526643545599737e-02  1.8974166013130275e-02  2.0351880094410635e-02  2.1628118461155917e-02  2.2771709223938882e-02  2.3753949589415214e-02  2.4548733544604115e-02  2.5133907430782500e-02  2.5491791341460696e-02  2.5609526691905988e-02  2.5479172448657005e-02  2.5097424164886740e-02  2.4465312310706665e-02  2.3587635883037431e-02  2.2472389947316016e-02  2.1130131888359951e-02  1.9573378131408980e-02  1.7816061093618628e-02  1.5873074691665705e-02  1.3759924006331985e-02  1.1492486459684032e-02  9.0868842017213496e-03  6.5594636451992479e-03  3.9268601290617239e-03  1.2061004059296784e-03  -1.5851205146302761e-03  -4.4261789743256482e-03  -7.2980571703579215e-03  -1.0180648930148341e-02  -1.3050826257678675e-02  -1.5884161839452942e-02  -1.8653985873668361e-02  -2.1331596353360165e-02  -2.3886297582450790e-02  -2.6285677480265893e-02  -2.8496049662256766e-02  -3.0483092554082505e-02  -3.2212682465897459e-02  -3.3651903139328004e-02  -3.4770191748224204e-02  -3.5540613155529678e-02  -3.5941153704874648e-02  -3.5955804390767836e-02  -3.5574815191893865e-02  -3.4799219071980150e-02  -3.3639663584046513e-02  -3.2112793718136932e-02  -3.0235515850514875e-02  -2.8043320892845305e-02  -2.5583061544532600e-02  -2.2906014631934004e-02  -2.0060045782888333e-02  -1.7092889483199362e-02  -1.4061932798596704e-02  -1.1021432557294271e-02  -8.0229254654209294e-03  -5.1200123423640305e-03  -2.3590996435071312e-03  2.1233277320735963e-04  2.5478621702059714e-03  4.6186887140460334e-03  6.4053069879543255e-03  7.8893534352710536e-03  9.0648532597430199e-03  9.9344297125715676e-03  1.0509955687836459e-02  1.0811798353498306e-02  1.0867388349389794e-02  1.0709579138169027e-02  1.0374446894576988e-02  9.8993629702471848e-03  9.3210261136618400e-03  8.6739967975723239e-03  7.9890695375770381e-03  7.2926077122317991e-03  6.6058795418040489e-03  5.9455380492402128e-03  5.3230335546764485e-03  4.7441810762983974e-03  4.2090418783723741e-03  3.7116992602994432e-03  3.2405032091338648e-03  2.7791869134038212e-03  2.3094994709489864e-03  1.8161594590000284e-03  1.2951201033911688e-03  7.6626417113357422e-04  2.9188811327562756e-04  -2.5477888584545100e-05  1.0078884589286811e-05  -1.0731500215285794e-03  -2.1723093015347376e-03  -3.1743034988119304e-03  -3.9904713769897031e-03  -4.5667272372075431e-03  -4.8796986216167485e-03  -4.9319873999829171e-03  -4.7471463464977661e-03  -4.3643054439301051e-03  -3.8325061102929344e-03  -3.2050352060963077e-03  -2.5341543315787651e-03  -1.8665836292972504e-03  -1.2399829082916855e-03  -6.8053906208093943e-04  -2.0172642338591061e-04  1.9597200104474080e-04  5.2416490865023104e-04  8.0461059503175790e-04  1.0667389553672031e-03  1.3443166787021925e-03  1.6719364279102454e-03  2.0816834511713130e-03  2.6003129160168115e-03  3.2478457022917227e-03  4.0377567064764303e-03  4.9772601485305124e-03  6.0686740930297276e-03  7.3133375806575581e-03  8.7110692789737019e-03  1.0257278664185887e-02  1.1945649221360500e-02  1.3768008584231203e-02  1.5710342200466260e-02  1.7752207948453835e-02  1.9868649792371178e-02  2.2029170098629501e-02  2.4195920625040133e-02  2.6326826580109201e-02  2.8376397864372988e-02  3.0299051290547000e-02  3.2049274031257083e-02  3.3584364905031736e-02  3.4866218977003087e-02  3.5862495410752059e-02  3.6547826302973714e-02  3.6904194395395537e-02  3.6921094594490438e-02  3.6595157302272398e-02  3.5929451374941350e-02  3.4932593294741167e-02  3.3617674215812278e-02  3.2001201514888625e-02  3.0102065232815240e-02  2.7940621165566167e-02  2.5537912085274981e-02  2.2915059453192593e-02  2.0092829023335677e-02  1.7091367377779880e-02  1.3930096901074811e-02  1.0627754687304161e-02  7.2025621800540082e-03  3.6725356631190816e-03  5.5997645450724958e-05  -3.6278665355078924e-03  -7.3600856866767239e-03  -1.1120719214527962e-02  -1.4886707059066355e-02  -1.8633429141260996e-02  -2.2333267310205556e-02  -2.5955839524145499e-02  -2.9467664781075317e-02  -3.2832271941637688e-02  -3.6010410066020730e-02  -3.8960526887020702e-02  -4.1639495058800782e-02  -4.4003609996648527e-02  -4.6009846459529172e-02  -4.7617348911386144e-02  -4.8789082335580686e-02  -4.9493560166998518e-02  -4.9706570942341766e-02  -4.9413387202328150e-02  -4.8608936490514010e-02  -4.7298508091711662e-02  -4.5498712344771090e-02  -4.3242427123589174e-02  -4.0567467466137076e-02  -3.7520506616377160e-02  -3.4151849351750932e-02  -3.0526745647791766e-02  -2.6716323441862880e-02  -2.2782317451111880e-02  -1.8788614653746972e-02  -1.4802470660184724e-02  -1.0887494258311333e-02  -7.1039560444038623e-03  -3.5036488041001669e-03  -1.4275713687742641e-04  2.9220927236615914e-03  5.6521878085806195e-03  8.0204838936874159e-03  1.0003714511924791e-02  1.1590853689872617e-02  1.2782701852535978e-02  1.3591746660890490e-02  1.4041814158040561e-02  1.4166483211233956e-02  1.4007004442557603e-02  1.3609674884636130e-02  1.3023134655341800e-02  1.2295486126048241e-02  1.1472325158611593e-02  1.0594996335615435e-02  9.6986925357109375e-03  8.8115376643240588e-03  7.9548203661635609e-03  7.1419272656951128e-03  6.3777240955495982e-03  5.6583360460837175e-03  4.9714624902281023e-03  4.2978049682030235e-03  3.6142914040730853e-03  2.8998322121093836e-03  2.1443607222426161e-03  1.3618739002211212e-03  6.0792068848403613e-04  -2.1604453255771588e-05  1.7887689989910909e-06  -1.5691170173734754e-03  -3.0730944569164133e-03  -4.3941739762579967e-03  -5.4418147878195714e-03  -6.1590284314132302e-03  -6.5228872409836148e-03  -6.5415875503780927e-03  -6.2492428661844830e-03  -5.6992076335466799e-03  -4.9566679912854345e-03  -4.0912266147408241e-03  -3.1701166040332624e-03  -2.2524994651234357e-03  -1.3851192462772102e-03  -5.9938965965493579e-04  9.0098165311595661e-05  6.8578900265617553e-04  1.2056502120762727e-03  1.6808711899569638e-03  2.1522008637406055e-03  2.6655559089873927e-03  3.2670968111224888e-03  3.9987655661465737e-03  4.8953937646161747e-03  5.9821648187890668e-03  7.2743383327106594e-03  8.7807981366849683e-03  1.0504068015463152e-02  1.2438963181530448e-02  1.4578041820596650e-02  1.6910289474226858e-02  1.9418225550516359e-02  2.2078417912520375e-02  2.4861680312477971e-02  2.7728664476768288e-02  3.0631296385482849e-02  3.3514702070802212e-02  3.6319859958495175e-02  3.8984649246588302e-02  4.1447686249390721e-02  4.