<?xml version="1.0"?>
<VTKFile type="UnstructuredGrid"  version="0.1"  >
<UnstructuredGrid>
<Piece  NumberOfPoints="81" NumberOfCells="64">
<Points>
<DataArray  type="Float64"  NumberOfComponents="3"  format="ascii">0 0 0  0.125 0 0  0.25 0 0  0.375 0 0  0.5 0 0  0.625 0 0  0.75 0 0  0.875 0 0  1 0 0  0 0.125 0  0.125 0.125 0  0.25 0.125 0  0.375 0.125 0  0.5 0.125 0  0.625 0.125 0  0.75 0.125 0  0.875 0.125 0  1 0.125 0  0 0.25 0  0.125 0.25 0  0.25 0.25 0  0.375 0.25 0  0.5 0.25 0  0.625 0.25 0  0.75 0.25 0  0.875 0.25 0  1 0.25 0  0 0.375 0  0.125 0.375 0  0.25 0.375 0  0.375 0.375 0  0.5 0.375 0  0.625 0.375 0  0.75 0.375 0  0.875 0.375 0  1 0.375 0  0 0.5 0  0.125 0.5 0  0.25 0.5 0  0.375 0.5 0  0.5 0.5 0  0.625 0.5 0  0.75 0.5 0  0.875 0.5 0  1 0.5 0  0 0.625 0  0.125 0.625 0  0.25 0.625 0  0.375 0.625 0  0.5 0.625 0  0.625 0.625 0  0.75 0.625 0  0.875 0.625 0  1 0.625 0  0 0.75 0  0.125 0.75 0  0.25 0.75 0  0.375 0.75 0  0.5 0.75 0  0.625 0.75 0  0.75 0.75 0  0.875 0.75 0  1 0.75 0  0 0.875 0  0.125 0.875 0  0.25 0.875 0  0.375 0.875 0  0.5 0.875 0  0.625 0.875 0  0.75 0.875 0  0.875 0.875 0  1 0.875 0  0 1 0  0.125 1 0  0.25 1 0  0.375 1 0  0.5 1 0  0.625 1 0  0.75 1 0  0.875 1 0  1 1 0  </DataArray>
</Points>
<Cells>
<DataArray  type="UInt32"  Name="connectivity"  format="ascii">0 1 10 9  1 2 11 10  2 3 12 11  3 4 13 12  4 5 14 13  5 6 15 14  6 7 16 15  7 8 17 16  9 10 19 18  10 11 20 19  11 12 21 20  12 13 22 21  13 14 23 22  14 15 24 23  15 16 25 24  16 17 26 25  18 19 28 27  19 20 29 28  20 21 30 29  21 22 31 30  22 23 32 31  23 24 33 32  24 25 34 33  25 26 35 34  27 28 37 36  28 29 38 37  29 30 39 38  30 31 40 39  31 32 41 40  32 33 42 41  33 34 43 42  34 35 44 43  36 37 46 45  37 38 47 46  38 39 48 47  39 40 49 48  40 41 50 49  41 42 51 50  42 43 52 51  43 44 53 52  45 46 55 54  46 47 56 55  47 48 57 56  48 49 58 57  49 50 59 58  50 51 60 59  51 52 61 60  52 53 62 61  54 55 64 63  55 56 65 64  56 57 66 65  57 58 67 66  58 59 68 67  59 60 69 68  60 61 70 69  61 62 71 70  63 64 73 72  64 65 74 73  65 66 75 74  66 67 76 75  67 68 77 76  68 69 78 77  69 70 79 78  70 71 80 79  </DataArray>
<DataArray  type="UInt32"  Name="offsets"  format="ascii">4 8 12 16 20 24 28 32 36 40 44 48 52 56 60 64 68 72 76 80 84 88 92 96 100 104 108 112 116 120 124 128 132 136 140 144 148 152 156 160 164 168 172 176 180 184 188 192 196 200 204 208 212 216 220 224 228 232 236 240 244 248 252 256 </DataArray>
<DataArray  type="UInt8"  Name="types"  format="ascii">9 9 9 9 9 9 9 9 9 9 9 9 9 9 9 9 9 9 9 9 9 9 9 9 9 9 9 9 9 9 9 9 9 9 9 9 9 9 9 9 9 9 9 9 9 9 9 9 9 9 9 9 9 9 9 9 9 9 9 9 9 9 9 9 </DataArray>
</Cells>
<PointData  Scalars="u_sol"> 
<DataArray  type="Float64"  Name="u_sol"  format="ascii">-3.4513560772764073e-05  1.7362566206350648e-04  6.5084130943497047e-04  1.1731685709933843e-03  1.5236403652252467e-03  1.5229315806230114e-03  1.1054860097007061e-03  3.9327583214882408e-04  -7.5627262989254925e-05  -4.1920762597963309e-04  2.1089224268433003e-03  7.9049696005242028e-03  1.4248569618453284e-02  1.8504401890869569e-02  1.8494982710771241e-02  1.3422688024490485e-02  4.7741919686186303e-03  -9.1808557786884502e-04  -4.6479689862051585e-04  2.3382747417503421e-03  8.7645697763618739e-03  1.5797844182394785e-02  2.0516204062962361e-02  2.0505447986733778e-02  1.4881172849319512e-02  5.2927029342246263e-03  -1.0178006159196641e-03  -2.8834013548654705e-04  1.4505645460267098e-03  5.4371511232924937e-03  9.8002556295749953e-03  1.2727267536865951e-02  1.2720506079651670e-02  9.2314986269222150e-03  3.2833131740197404e-03  -6.3139040399017759e-04  -1.2127761518432093e-09  6.3777809385708734e-09  1.8302492694262547e-08  3.2768065489751502e-08  5.0043636062348227e-08  6.2249699069835655e-08  9.9592419142320561e-08  8.4494456272063583e-08  -1.4149269908774340e-08  2.8833873939402882e-04  -1.4505571800204086e-03  -5.4371299023731447e-03  -9.8002176150565577e-03  -1.2727208996012675e-02  -1.2720430407253623e-02  -9.2313850148485442e-03  -3.2832231918602868e-03  6.3137517020517341e-04  4.6479720747283999e-04  -2.3382765995633398e-03  -8.7645714313920927e-03  -1.5797849302737497e-02  -2.0516225588867690e-02  -2.0505488017150863e-02  -1.4881243464164102e-02  -5.2927647431381215e-03  1.0178109021063779e-03  4.1920961346046930e-04  -2.1089327797016214e-03  -7.9050013723333968e-03  -1.4248625366798650e-02  -1.8504480200218765e-02  -1.8495076098699260e-02  -1.3422825831566242e-02  -4.7743009244743152e-03  9.1810403724893537e-04  3.4514185850121786e-05  -1.7362872878128518e-04  -6.5085350342879232e-04  -1.1731883996443087e-03  -1.5236578640557066e-03  -1.5229405877225002e-03  -1.1054955740104121e-03  -3.9328325525498622e-04  7.5628537953303636e-05  </DataArray> 
</PointData> 
</Piece>
</UnstructuredGrid>
</VTKFile>