<?xml version="1.0"?>
<VTKFile type="UnstructuredGrid"  version="0.1"  >
<UnstructuredGrid>
<Piece  NumberOfPoints="81" NumberOfCells="64">
<Points>
<DataArray  type="Float64"  NumberOfComponents="3"  format="ascii">0 0 0  0.125 0 0  0.25 0 0  0.375 0 0  0.5 0 0  0.625 0 0  0.75 0 0  0.875 0 0  1 0 0  0 0.125 0  0.125 0.125 0  0.25 0.125 0  0.375 0.125 0  0.5 0.125 0  0.625 0.125 0  0.75 0.125 0  0.875 0.125 0  1 0.125 0  0 0.25 0  0.125 0.25 0  0.25 0.25 0  0.375 0.25 0  0.5 0.25 0  0.625 0.25 0  0.75 0.25 0  0.875 0.25 0  1 0.25 0  0 0.375 0  0.125 0.375 0  0.25 0.375 0  0.375 0.375 0  0.5 0.375 0  0.625 0.375 0  0.75 0.375 0  0.875 0.375 0  1 0.375 0  0 0.5 0  0.125 0.5 0  0.25 0.5 0  0.375 0.5 0  0.5 0.5 0  0.625 0.5 0  0.75 0.5 0  0.875 0.5 0  1 0.5 0  0 0.625 0  0.125 0.625 0  0.25 0.625 0  0.375 0.625 0  0.5 0.625 0  0.625 0.625 0  0.75 0.625 0  0.875 0.625 0  1 0.625 0  0 0.75 0  0.125 0.75 0  0.25 0.75 0  0.375 0.75 0  0.5 0.75 0  0.625 0.75 0  0.75 0.75 0  0.875 0.75 0  1 0.75 0  0 0.875 0  0.125 0.875 0  0.25 0.875 0  0.375 0.875 0  0.5 0.875 0  0.625 0.875 0  0.75 0.875 0  0.875 0.875 0  1 0.875 0  0 1 0  0.125 1 0  0.25 1 0  0.375 1 0  0.5 1 0  0.625 1 0  0.75 1 0  0.875 1 0  1 1 0  </DataArray>
</Points>
<Cells>
<DataArray  type="UInt32"  Name="connectivity"  format="ascii">0 1 10 9  1 2 11 10  2 3 12 11  3 4 13 12  4 5 14 13  5 6 15 14  6 7 16 15  7 8 17 16  9 10 19 18  10 11 20 19  11 12 21 20  12 13 22 21  13 14 23 22  14 15 24 23  15 16 25 24  16 17 26 25  18 19 28 27  19 20 29 28  20 21 30 29  21 22 31 30  22 23 32 31  23 24 33 32  24 25 34 33  25 26 35 34  27 28 37 36  28 29 38 37  29 30 39 38  30 31 40 39  31 32 41 40  32 33 42 41  33 34 43 42  34 35 44 43  36 37 46 45  37 38 47 46  38 39 48 47  39 40 49 48  40 41 50 49  41 42 51 50  42 43 52 51  43 44 53 52  45 46 55 54  46 47 56 55  47 48 57 56  48 49 58 57  49 50 59 58  50 51 60 59  51 52 61 60  52 53 62 61  54 55 64 63  55 56 65 64  56 57 66 65  57 58 67 66  58 59 68 67  59 60 69 68  60 61 70 69  61 62 71 70  63 64 73 72  64 65 74 73  65 66 75 74  66 67 76 75  67 68 77 76  68 69 78 77  69 70 79 78  70 71 80 79  </DataArray>
<DataArray  type="UInt32"  Name="offsets"  format="ascii">4 8 12 16 20 24 28 32 36 40 44 48 52 56 60 64 68 72 76 80 84 88 92 96 100 104 108 112 116 120 124 128 132 136 140 144 148 152 156 160 164 168 172 176 180 184 188 192 196 200 204 208 212 216 220 224 228 232 236 240 244 248 252 256 </DataArray>
<DataArray  type="UInt8"  Name="types"  format="ascii">9 9 9 9 9 9 9 9 9 9 9 9 9 9 9 9 9 9 9 9 9 9 9 9 9 9 9 9 9 9 9 9 9 9 9 9 9 9 9 9 9 9 9 9 9 9 9 9 9 9 9 9 9 9 9 9 9 9 9 9 9 9 9 9 </DataArray>
</Cells>
<PointData  Scalars="v_sol"> 
<DataArray  type="Float64"  Name="v_sol"  format="ascii">1.8050814040238566e-05  4.4789305917455468e-04  6.3551507443336140e-04  5.5769993873698890e-04  2.3492209052122741e-04  -2.5118207740665202e-04  -7.1750164396095894e-04  -8.6008466972969553e-04  -1.1257435770024079e-04  -9.2188571532146065e-05  -2.2875315315400526e-03  -3.2457803455998801e-03  -2.8483693700468884e-03  -1.1998301588691763e-03  1.2828280664023966e-03  3.6644886631551138e-03  4.3928038736551879e-03  5.7497017374899149e-04  -2.9896128651750540e-04  -7.4175403663694246e-03  -1.0524669716734473e-02  -9.2358205178841093e-03  -3.8903439557146533e-03  4.1602408637480227e-03  1.1882646837706257e-02  1.4242915631132665e-02  1.8641037192978988e-03  -4.7121631728630194e-04  -1.1691078096426897e-02  -1.6588265548689821e-02  -1.4556751921043371e-02  -6.1314869780318753e-03  6.5574413508979728e-03  1.8728711833291653e-02  2.2448096833757477e-02  2.9378813292783600e-03  -5.3709000925041873e-04  -1.3325336649438467e-02  -1.8907058508202637e-02  -1.6591537704730278e-02  -6.9885091002050634e-03  7.4741577137634888e-03  2.1346678872137193e-02  2.5585880840533419e-02  3.3485390271652386e-03  -4.7121919741077912e-04  -1.1691097796650609e-02  -1.6588285705998931e-02  -1.4556783019132579e-02  -6.1315091240343525e-03  6.5574044352549182e-03  1.8728646122190201e-02  2.2448247998036172e-02  2.9379733390346788e-03  -2.9896454496212142e-04  -7.4175657230834769e-03  -1.0524697236092262e-02  -9.2358566875925859e-03  -3.8903668449567609e-03  4.1602011998647555e-03  1.1882581683155893e-02  1.4243084968695115e-02  1.8642018113825263e-03  -9.2189629076888137e-05  -2.2875459804925142e-03  -3.2457980829487996e-03  -2.8483840748395077e-03  -1.1998302278599454e-03  1.2828199437419589e-03  3.6644670036583568e-03  4.3928642316793569e-03  5.7500400087285111e-04  1.8051035719424831e-05  4.4789562791458986e-04  6.3551814756578019e-04  5.5770279338860772e-04  2.3492267452595949e-04  -2.5118001941284415e-04  -7.1749730546580607e-04  -8.6009684653764996e-04  -1.1258117981679657e-04  </DataArray> 
</PointData> 
</Piece>
</UnstructuredGrid>
</VTKFile>