<?xml version="1.0"?>
<VTKFile type="UnstructuredGrid"  version="0.1"  >
<UnstructuredGrid>
<Piece  NumberOfPoints="1089" NumberOfCells="1024">
<Points>
<DataArray  type="Float64"  NumberOfComponents="3"  format="ascii">0 0 0  0.03125 0 0  0.0625 0 0  0.09375 0 0  0.125 0 0  0.15625 0 0  0.1875 0 0  0.21875 0 0  0.25 0 0  0.28125 0 0  0.3125 0 0  0.34375 0 0  0.375 0 0  0.40625 0 0  0.4375 0 0  0.46875 0 0  0.5 0 0  0.53125 0 0  0.5625 0 0  0.59375 0 0  0.625 0 0  0.65625 0 0  0.6875 0 0  0.71875 0 0  0.75 0 0  0.78125 0 0  0.8125 0 0  0.84375 0 0  0.875 0 0  0.90625 0 0  0.9375 0 0  0.96875 0 0  1 0 0  0 0.03125 0  0.03125 0.03125 0  0.0625 0.03125 0  0.09375 0.03125 0  0.125 0.03125 0  0.15625 0.03125 0  0.1875 0.03125 0  0.21875 0.03125 0  0.25 0.03125 0  0.28125 0.03125 0  0.3125 0.03125 0  0.34375 0.03125 0  0.375 0.03125 0  0.40625 0.03125 0  0.4375 0.03125 0  0.46875 0.03125 0  0.5 0.03125 0  0.53125 0.03125 0  0.5625 0.03125 0  0.59375 0.03125 0  0.625 0.03125 0  0.65625 0.03125 0  0.6875 0.03125 0  0.71875 0.03125 0  0.75 0.03125 0  0.78125 0.03125 0  0.8125 0.03125 0  0.84375 0.03125 0  0.875 0.03125 0  0.90625 0.03125 0  0.9375 0.03125 0  0.96875 0.03125 0  1 0.03125 0  0 0.0625 0  0.03125 0.0625 0  0.0625 0.0625 0  0.09375 0.0625 0  0.125 0.0625 0  0.15625 0.0625 0  0.1875 0.0625 0  0.21875 0.0625 0  0.25 0.0625 0  0.28125 0.0625 0  0.3125 0.0625 0  0.34375 0.0625 0  0.375 0.0625 0  0.40625 0.0625 0  0.4375 0.0625 0  0.46875 0.0625 0  0.5 0.0625 0  0.53125 0.0625 0  0.5625 0.0625 0  0.59375 0.0625 0  0.625 0.0625 0  0.65625 0.0625 0  0.6875 0.0625 0  0.71875 0.0625 0  0.75 0.0625 0  0.78125 0.0625 0  0.8125 0.0625 0  0.84375 0.0625 0  0.875 0.0625 0  0.90625 0.0625 0  0.9375 0.0625 0  0.96875 0.0625 0  1 0.0625 0  0 0.09375 0  0.03125 0.09375 0  0.0625 0.09375 0  0.09375 0.09375 0  0.125 0.09375 0  0.15625 0.09375 0  0.1875 0.09375 0  0.21875 0.09375 0  0.25 0.09375 0  0.28125 0.09375 0  0.3125 0.09375 0  0.34375 0.09375 0  0.375 0.09375 0  0.40625 0.09375 0  0.4375 0.09375 0  0.46875 0.09375 0  0.5 0.09375 0  0.53125 0.09375 0  0.5625 0.09375 0  0.59375 0.09375 0  0.625 0.09375 0  0.65625 0.09375 0  0.6875 0.09375 0  0.71875 0.09375 0  0.75 0.09375 0  0.78125 0.09375 0  0.8125 0.09375 0  0.84375 0.09375 0  0.875 0.09375 0  0.90625 0.09375 0  0.9375 0.09375 0  0.96875 0.09375 0  1 0.09375 0  0 0.125 0  0.03125 0.125 0  0.0625 0.125 0  0.09375 0.125 0  0.125 0.125 0  0.15625 0.125 0  0.1875 0.125 0  0.21875 0.125 0  0.25 0.125 0  0.28125 0.125 0  0.3125 0.125 0  0.34375 0.125 0  0.375 0.125 0  0.40625 0.125 0  0.4375 0.125 0  0.46875 0.125 0  0.5 0.125 0  0.53125 0.125 0  0.5625 0.125 0  0.59375 0.125 0  0.625 0.125 0  0.65625 0.125 0  0.6875 0.125 0  0.71875 0.125 0  0.75 0.125 0  0.78125 0.125 0  0.8125 0.125 0  0.84375 0.125 0  0.875 0.125 0  0.90625 0.125 0  0.9375 0.125 0  0.96875 0.125 0  1 0.125 0  0 0.15625 0  0.03125 0.15625 0  0.0625 0.15625 0  0.09375 0.15625 0  0.125 0.15625 0  0.15625 0.15625 0  0.1875 0.15625 0  0.21875 0.15625 0  0.25 0.15625 0  0.28125 0.15625 0  0.3125 0.15625 0  0.34375 0.15625 0  0.375 0.15625 0  0.40625 0.15625 0  0.4375 0.15625 0  0.46875 0.15625 0  0.5 0.15625 0  0.53125 0.15625 0  0.5625 0.15625 0  0.59375 0.15625 0  0.625 0.15625 0  0.65625 0.15625 0  0.6875 0.15625 0  0.71875 0.15625 0  0.75 0.15625 0  0.78125 0.15625 0  0.8125 0.15625 0  0.84375 0.15625 0  0.875 0.15625 0  0.90625 0.15625 0  0.9375 0.15625 0  0.96875 0.15625 0  1 0.15625 0  0 0.1875 0  0.03125 0.1875 0  0.0625 0.1875 0  0.09375 0.1875 0  0.125 0.1875 0  0.15625 0.1875 0  0.1875 0.1875 0  0.21875 0.1875 0  0.25 0.1875 0  0.28125 0.1875 0  0.3125 0.1875 0  0.34375 0.1875 0  0.375 0.1875 0  0.40625 0.1875 0  0.4375 0.1875 0  0.46875 0.1875 0  0.5 0.1875 0  0.53125 0.1875 0  0.5625 0.1875 0  0.59375 0.1875 0  0.625 0.1875 0  0.65625 0.1875 0  0.6875 0.1875 0  0.71875 0.1875 0  0.75 0.1875 0  0.78125 0.1875 0  0.8125 0.1875 0  0.84375 0.1875 0  0.875 0.1875 0  0.90625 0.1875 0  0.9375 0.1875 0  0.96875 0.1875 0  1 0.1875 0  0 0.21875 0  0.03125 0.21875 0  0.0625 0.21875 0  0.09375 0.21875 0  0.125 0.21875 0  0.15625 0.21875 0  0.1875 0.21875 0  0.21875 0.21875 0  0.25 0.21875 0  0.28125 0.21875 0  0.3125 0.21875 0  0.34375 0.21875 0  0.375 0.21875 0  0.40625 0.21875 0  0.4375 0.21875 0  0.46875 0.21875 0  0.5 0.21875 0  0.53125 0.21875 0  0.5625 0.21875 0  0.59375 0.21875 0  0.625 0.21875 0  0.65625 0.21875 0  0.6875 0.21875 0  0.71875 0.21875 0  0.75 0.21875 0  0.78125 0.21875 0  0.8125 0.21875 0  0.84375 0.21875 0  0.875 0.21875 0  0.90625 0.21875 0  0.9375 0.21875 0  0.96875 0.21875 0  1 0.21875 0  0 0.25 0  0.03125 0.25 0  0.0625 0.25 0  0.09375 0.25 0  0.125 0.25 0  0.15625 0.25 0  0.1875 0.25 0  0.21875 0.25 0  0.25 0.25 0  0.28125 0.25 0  0.3125 0.25 0  0.34375 0.25 0  0.375 0.25 0  0.40625 0.25 0  0.4375 0.25 0  0.46875 0.25 0  0.5 0.25 0  0.53125 0.25 0  0.5625 0.25 0  0.59375 0.25 0  0.625 0.25 0  0.65625 0.25 0  0.6875 0.25 0  0.71875 0.25 0  0.75 0.25 0  0.78125 0.25 0  0.8125 0.25 0  0.84375 0.25 0  0.875 0.25 0  0.90625 0.25 0  0.9375 0.25 0  0.96875 0.25 0  1 0.25 0  0 0.28125 0  0.03125 0.28125 0  0.0625 0.28125 0  0.09375 0.28125 0  0.125 0.28125 0  0.15625 0.28125 0  0.1875 0.28125 0  0.21875 0.28125 0  0.25 0.28125 0  0.28125 0.28125 0  0.3125 0.28125 0  0.34375 0.28125 0  0.375 0.28125 0  0.40625 0.28125 0  0.4375 0.28125 0  0.46875 0.28125 0  0.5 0.28125 0  0.53125 0.28125 0  0.5625 0.28125 0  0.59375 0.28125 0  0.625 0.28125 0  0.65625 0.28125 0  0.6875 0.28125 0  0.71875 0.28125 0  0.75 0.28125 0  0.78125 0.28125 0  0.8125 0.28125 0  0.84375 0.28125 0  0.875 0.28125 0  0.90625 0.28125 0  0.9375 0.28125 0  0.96875 0.28125 0  1 0.28125 0  0 0.3125 0  0.03125 0.3125 0  0.0625 0.3125 0  0.09375 0.3125 0  0.125 0.3125 0  0.15625 0.3125 0  0.1875 0.3125 0  0.21875 0.3125 0  0.25 0.3125 0  0.28125 0.3125 0  0.3125 0.3125 0  0.34375 0.3125 0  0.375 0.3125 0  0.40625 0.3125 0  0.4375 0.3125 0  0.46875 0.3125 0  0.5 0.3125 0  0.53125 0.3125 0  0.5625 0.3125 0  0.59375 0.3125 0  0.625 0.3125 0  0.65625 0.3125 0  0.6875 0.3125 0  0.71875 0.3125 0  0.75 0.3125 0  0.78125 0.3125 0  0.8125 0.3125 0  0.84375 0.3125 0  0.875 0.3125 0  0.90625 0.3125 0  0.9375 0.3125 0  0.96875 0.3125 0  1 0.3125 0  0 0.34375 0  0.03125 0.34375 0  0.0625 0.34375 0  0.09375 0.34375 0  0.125 0.34375 0  0.15625 0.34375 0  0.1875 0.34375 0  0.21875 0.34375 0  0.25 0.34375 0  0.28125 0.34375 0  0.3125 0.34375 0  0.34375 0.34375 0  0.375 0.34375 0  0.40625 0.34375 0  0.4375 0.34375 0  0.46875 0.34375 0  0.5 0.34375 0  0.53125 0.34375 0  0.5625 0.34375 0  0.59375 0.34375 0  0.625 0.34375 0  0.65625 0.34375 0  0.6875 0.34375 0  0.71875 0.34375 0  0.75 0.34375 0  0.78125 0.34375 0  0.8125 0.34375 0  0.84375 0.34375 0  0.875 0.34375 0  0.90625 0.34375 0  0.9375 0.34375 0  0.96875 0.34375 0  1 0.34375 0  0 0.375 0  0.03125 0.375 0  0.0625 0.375 0  0.09375 0.375 0  0.125 0.375 0  0.15625 0.375 0  0.1875 0.375 0  0.21875 0.375 0  0.25 0.375 0  0.28125 0.375 0  0.3125 0.375 0  0.34375 0.375 0  0.375 0.375 0  0.40625 0.375 0  0.4375 0.375 0  0.46875 0.375 0  0.5 0.375 0  0.53125 0.375 0  0.5625 0.375 0  0.59375 0.375 0  0.625 0.375 0  0.65625 0.375 0  0.6875 0.375 0  0.71875 0.375 0  0.75 0.375 0  0.78125 0.375 0  0.8125 0.375 0  0.84375 0.375 0  0.875 0.375 0  0.90625 0.375 0  0.9375 0.375 0  0.96875 0.375 0  1 0.375 0  0 0.40625 0  0.03125 0.40625 0  0.0625 0.40625 0  0.09375 0.40625 0  0.125 0.40625 0  0.15625 0.40625 0  0.1875 0.40625 0  0.21875 0.40625 0  0.25 0.40625 0  0.28125 0.40625 0  0.3125 0.40625 0  0.34375 0.40625 0  0.375 0.40625 0  0.40625 0.40625 0  0.4375 0.40625 0  0.46875 0.40625 0  0.5 0.40625 0  0.53125 0.40625 0  0.5625 0.40625 0  0.59375 0.40625 0  0.625 0.40625 0  0.65625 0.40625 0  0.6875 0.40625 0  0.71875 0.40625 0  0.75 0.40625 0  0.78125 0.40625 0  0.8125 0.40625 0  0.84375 0.40625 0  0.875 0.40625 0  0.90625 0.40625 0  0.9375 0.40625 0  0.96875 0.40625 0  1 0.40625 0  0 0.4375 0  0.03125 0.4375 0  0.0625 0.4375 0  0.09375 0.4375 0  0.125 0.4375 0  0.15625 0.4375 0  0.1875 0.4375 0  0.21875 0.4375 0  0.25 0.4375 0  0.28125 0.4375 0  0.3125 0.4375 0  0.34375 0.4375 0  0.375 0.4375 0  0.40625 0.4375 0  0.4375 0.4375 0  0.46875 0.4375 0  0.5 0.4375 0  0.53125 0.4375 0  0.5625 0.4375 0  0.59375 0.4375 0  0.625 0.4375 0  0.65625 0.4375 0  0.6875 0.4375 0  0.71875 0.4375 0  0.75 0.4375 0  0.78125 0.4375 0  0.8125 0.4375 0  0.84375 0.4375 0  0.875 0.4375 0  0.90625 0.4375 0  0.9375 0.4375 0  0.96875 0.4375 0  1 0.4375 0  0 0.46875 0  0.03125 0.46875 0  0.0625 0.46875 0  0.09375 0.46875 0  0.125 0.46875 0  0.15625 0.46875 0  0.1875 0.46875 0  0.21875 0.46875 0  0.25 0.46875 0  0.28125 0.46875 0  0.3125 0.46875 0  0.34375 0.46875 0  0.375 0.46875 0  0.40625 0.46875 0  0.4375 0.46875 0  0.46875 0.46875 0  0.5 0.46875 0  0.53125 0.46875 0  0.5625 0.46875 0  0.59375 0.46875 0  0.625 0.46875 0  0.65625 0.46875 0  0.6875 0.46875 0  0.71875 0.46875 0  0.75 0.46875 0  0.78125 0.46875 0  0.8125 0.46875 0  0.84375 0.46875 0  0.875 0.46875 0  0.90625 0.46875 0  0.9375 0.46875 0  0.96875 0.46875 0  1 0.46875 0  0 0.5 0  0.03125 0.5 0  0.0625 0.5 0  0.09375 0.5 0  0.125 0.5 0  0.15625 0.5 0  0.1875 0.5 0  0.21875 0.5 0  0.25 0.5 0  0.28125 0.5 0  0.3125 0.5 0  0.34375 0.5 0  0.375 0.5 0  0.40625 0.5 0  0.4375 0.5 0  0.46875 0.5 0  0.5 0.5 0  0.53125 0.5 0  0.5625 0.5 0  0.59375 0.5 0  0.625 0.5 0  0.65625 0.5 0  0.6875 0.5 0  0.71875 0.5 0  0.75 0.5 0  0.78125 0.5 0  0.8125 0.5 0  0.84375 0.5 0  0.875 0.5 0  0.90625 0.5 0  0.9375 0.5 0  0.96875 0.5 0  1 0.5 0  0 0.53125 0  0.03125 0.53125 0  0.0625 0.53125 0  0.09375 0.53125 0  0.125 0.53125 0  0.15625 0.53125 0  0.1875 0.53125 0  0.21875 0.53125 0  0.25 0.53125 0  0.28125 0.53125 0  0.3125 0.53125 0  0.34375 0.53125 0  0.375 0.53125 0  0.40625 0.53125 0  0.4375 0.53125 0  0.46875 0.53125 0  0.5 0.53125 0  0.53125 0.53125 0  0.5625 0.53125 0  0.59375 0.53125 0  0.625 0.53125 0  0.65625 0.53125 0  0.6875 0.53125 0  0.71875 0.53125 0  0.75 0.53125 0  0.78125 0.531
[...]
<PointData  Scalars="u_sol"> 
<DataArray  type="Float64"  Name="u_sol"  format="ascii">-3.1799031261076022e-05  -6.4026049329931253e-05  4.6479195092820683e-04  1.1087517209907979e-03  1.7688016277790392e-03  4.6789346934888324e-03  1.1801093749153033e-02  1.4528629884824857e-02  1.1185874898638306e-02  1.4030700392590868e-02  1.9794513875907811e-02  2.0695371240870914e-02  1.6935760764830634e-02  7.9192160129107313e-03  -4.8200590093365340e-03  -1.8814665402022243e-02  -3.0009861212147659e-02  -3.4954762733002083e-02  -3.0472739158942507e-02  -1.6283990290130237e-02  5.2473409910710886e-03  2.7114120837550802e-02  4.2339496022389150e-02  4.5593090702932493e-02  3.8816709491834384e-02  2.6211267796707245e-02  1.2526791440679313e-02  3.3145584348921045e-03  -6.4709277480575085e-04  -1.0420257141799719e-03  -8.1585966050980380e-04  -4.3002702478270571e-04  5.7208654119570946e-05  -3.8250132204183335e-04  1.8471929981253464e-03  7.2628435717518331e-03  1.1184001054451420e-02  9.8823148435393648e-03  1.2847973468683160e-03  -3.5870460597314845e-03  5.8661899944505713e-03  3.2128729296805629e-03  -2.0719550774767847e-02  -6.4880701201362273e-02  -1.2432114277842876e-01  -1.8855931968290823e-01  -2.4635550351320412e-01  -2.8991094233654052e-01  -3.1564108810294561e-01  -3.2236515077962502e-01  -3.0998400948925964e-01  -2.7871954415705541e-01  -2.2937287670751735e-01  -1.6472164596900196e-01  -9.1164835089612178e-02  -2.0155411500342394e-02  3.5663688549180575e-02  6.8549133577713542e-02  7.9949095116394989e-02  7.3342168006167191e-02  5.2870758553015068e-02  3.0412940301943168e-02  1.3986074472283309e-02  5.1983378804901070e-03  9.8836689673007763e-04  -2.1269102931741700e-04  -7.0716969494318774e-04  3.4949138390272267e-03  1.1003420786674548e-02  1.7015398516007772e-02  1.9783926660735651e-02  1.6940236748264632e-02  3.4959863132731778e-03  -3.4000338533278891e-02  -9.1951947902086884e-02  -1.7109629609634056e-01  -2.5577130886101396e-01  -3.2617552922736726e-01  -3.7722935656189310e-01  -4.1053125747348729e-01  -4.3057355994318142e-01  -4.4039964225881184e-01  -4.4231140822842974e-01  -4.3659434783230677e-01  -4.2252910867002708e-01  -3.9708897355049644e-01  -3.5608031103783438e-01  -2.9517828369594812e-01  -2.1580070662623346e-01  -1.2946488299484540e-01  -5.6159536898506932e-02  -8.1636611191788899e-03  2.0754648590780689e-02  3.6727733338549486e-02  3.4926210136137774e-02  2.3379274390119560e-02  1.1056457716935605e-02  2.8970215491392211e-03  -5.3108551288839575e-04  -1.1126021822586520e-03  5.5089096247763645e-03  1.2677214795521677e-02  9.0894311136770871e-03  2.2742000021350279e-03  -8.8014183782422900e-03  -5.1449366928975906e-02  -1.3894299325831727e-01  -2.3971675105516796e-01  -3.2395481604267096e-01  -3.8118042426159682e-01  -4.1513652379868055e-01  -4.3327049469010503e-01  -4.4218490149005324e-01  -4.4601080797420523e-01  -4.4708757769350777e-01  -4.4664864092872136e-01  -4.4561545593384438e-01  -4.4456625553777029e-01  -4.4305414283311917e-01  -4.3759755628375635e-01  -4.1923080748936109e-01  -3.7407961595282702e-01  -2.9270088365998359e-01  -1.8629430739580399e-01  -8.9988668254790460e-02  -3.3010846758026027e-02  -5.1190640520931974e-03  1.2491147217458479e-02  1.5961662592045740e-02  1.1481415500699477e-02  3.9078629748733129e-03  -7.2436786231282158e-04  -1.4318989565424477e-03  7.7014689710953460e-03  1.1331312924038207e-02  -7.9321802286100193e-05  -2.7928758332992999e-02  -8.5878691986332203e-02  -1.7682565234957612e-01  -2.7033644636957394e-01  -3.4049428206894872e-01  -3.8061295593065114e-01  -3.9707105640772022e-01  -3.9980886667828303e-01  -3.9706972136661994e-01  -3.9327136554593550e-01  -3.9013717175834040e-01  -3.8757578922711211e-01  -3.8547221801132842e-01  -3.8377006453124424e-01  -3.8344208435102650e-01  -3.8618840745688177e-01  -3.9448721240460866e-01  -4.0865474544508124e-01  -4.2074170490900326e-01  -4.0823278694434978e-01  -3.4302249553823094e-01  -2.2437814856841734e-01  -1.0160000733868298e-01  -3.2005771484255298e-02  -7.2485109372447103e-03  5.5208312073000698e-03  5.9660781688178222e-03  2.0679921514844997e-03  -4.1547736493594868e-04  -9.6445940749519403e-04  6.6178489807040310e-03  -2.6675855028159885e-04  -2.5438049689940258e-02  -7.8712864872217903e-02  -1.6702920572275806e-01  -2.6102856000349317e-01  -3.2729237672263334e-01  -3.5720430630585176e-01  -3.6252432093528769e-01  -3.5784634487787986e-01  -3.5372548709957297e-01  -3.5277193796621192e-01  -3.5457662651763666e-01  -3.5680705081392078e-01  -3.5871795310423332e-01  -3.5925111090873929e-01  -3.5867296530687021e-01  -3.5656763182060719e-01  -3.5365193946493828e-01  -3.5084823412612354e-01  -3.5217451860066562e-01  -3.6335257543758631e-01  -3.8577178542441537e-01  -3.9874134859674815e-01  -3.5725149479026874e-01  -2.3775115875628700e-01  -9.6883305349165186e-02  -2.1598542754453588e-02  -3.0986798745408941e-03  3.7325625815817663e-03  2.2912174761608251e-03  -4.5319947715815614e-04  5.1225510186416530e-04  2.7300864604319142e-04  -2.2468582240131246e-02  -7.0647765926874592e-02  -1.5076828863038960e-01  -2.4245750955009229e-01  -3.0299086767242617e-01  -3.2347900813648933e-01  -3.2263347187482522e-01  -3.1725617377476617e-01  -3.1711146149808844e-01  -3.2059281594804667e-01  -3.2494940885461160e-01  -3.2767484468511604e-01  -3.2935160178841522e-01  -3.2993889650071972e-01  -3.3037353799286895e-01  -3.3054864002120532e-01  -3.3115695211208446e-01  -3.3177849706552348e-01  -3.3220104306891168e-01  -3.3070103765658937e-01  -3.2799484445464938e-01  -3.3022442069863622e-01  -3.4825817427610201e-01  -3.7108459365653096e-01  -3.4458049729741275e-01  -2.2361479918713772e-01  -7.4654425588517842e-02  -9.2362443237063874e-03  1.3783325361951934e-03  -2.2458544185908666e-04  -2.3530982981791698e-05  2.4442987149459342e-03  -1.0409407619736979e-02  -4.9097713795789789e-02  -1.1546361591860076e-01  -2.0187098652514293e-01  -2.6417232022651854e-01  -2.8641847310575275e-01  -2.8830379154196967e-01  -2.8502147973172920e-01  -2.8720516775219140e-01  -2.9104151362576314e-01  -2.9376499668691736e-01  -2.9495968157585062e-01  -2.9621261880921423e-01  -2.9754055597822754e-01  -2.9886495693701648e-01  -2.9982155779447928e-01  -3.0042502247165626e-01  -3.0065788270675448e-01  -3.0096545882623443e-01  -3.0174559910805132e-01  -3.0360308174715861e-01  -3.0505072646682357e-01  -3.0385127407644819e-01  -3.0248290096684344e-01  -3.1596272103297446e-01  -3.4059870667117581e-01  -3.1513208995201991e-01  -1.8338963405505634e-01  -3.9445324320139440e-02  -2.3710289426841519e-03  5.5684775418102031e-03  -7.4939189908497029e-04  3.9093212307908841e-03  -2.2173950720854645e-02  -7.6754257776762799e-02  -1.5331918403284242e-01  -2.2051625042135387e-01  -2.5045635902530294e-01  -2.5481779073423438e-01  -2.5076360169241718e-01  -2.5192840097959829e-01  -2.5579090449126901e-01  -2.5788051986686955e-01  -2.6056059781259649e-01  -2.6339243216746117e-01  -2.6644413671553951e-01  -2.6828995760785596e-01  -2.7002512223641428e-01  -2.7105100280787436e-01  -2.7236558079948059e-01  -2.7329565482660784e-01  -2.7453225034390938e-01  -2.7526110391131442e-01  -2.7610332319220660e-01  -2.7699063229945120e-01  -2.7821404889437618e-01  -2.7682042915303767e-01  -2.7452855736892334e-01  -2.8754621478596981e-01  -3.1128035957197181e-01  -2.7004776069703396e-01  -1.2045279161265843e-01  -5.1918466975919338e-03  -2.1079739595493236e-03  -3.2553886805516616e-04  5.1259492358647091e-03  -3.2545908867479233e-02  -9.6673972246225995e-02  -1.6449368964823174e-01  -2.0770825071410137e-01  -2.1866840934486009e-01  -2.1677594149439333e-01  -2.1867751432686156e-01  -2.2406908255951305e-01  -2.2677978896146839e-01  -2.3024382807413710e-01  -2.3316541509463304e-01  -2.3511910491963756e-01  -2.3624416005785459e-01  -2.3770555215461273e-01  -2.3920009054369437e-01  -2.4070704580852026e-01  -2.4194580541284266e-01  -2.4313558176867106e-01  -2.4420028908382574e-01  -2.4555816484912013e-01  -2.4696635685830862e-01  -2.4869774262230046e-01  -2.5035216934763460e-01  -2.5164645330856994e-01  -2.4875475472004338e-01  -2.4614495358831759e-01  -2.6277444900900815e-01  -2.7999950333657325e-01  -2.0259987126582446e-01  -4.6355686073074664e-02  -4.2517106323089682e-04  4.0202863172588744e-04  5.7586238130489025e-03  -3.8906020198082841e-02  -1.0168964860445240e-01  -1.5593475719066877e-01  -1.8017500914027790e-01  -1.8306757115893274e-01  -1.8506282761916085e-01  -1.8904219186853971e-01  -1.9182698692966832e-01  -1.9477617635113170e-01  -1.9803499780509171e-01  -1.9973861435905124e-01  -2.0234569231944208e-01  -2.0525609964036559e-01  -2.0818160065901711e-01  -2.1013666769806444e-01  -2.1206590584301951e-01  -2.1357969950340158e-01  -2.1530180958900882e-01  -2.1666696801430732e-01  -2.1808369511956088e-01  -2.1901986446091246e-01  -2.1988080767676088e-01  -2.2067721483958627e-01  -2.2263830308496307e-01  -2.2408417043692361e-01  -2.1958853356414731e-01  -2.1886566843919483e-01  -2.4173663328814629e-01  -2.3456835712584972e-01  -1.0986212727920765e-01  1.3785333335006667e-02  -1.5162808542887700e-03  5.7539387539767492e-03  -3.8264260357144066e-02  -9.4087876520024413e-02  -1.3326008369807904e-01  -1.4677301099625972e-01  -1.5002061914206574e-01  -1.5338534082029709e-01  -1.5822825642339716e-01  -1.6269224372920274e-01  -1.6658168041363122e-01  -1.6915859525353516e-01  -1.7214317497767337e-01  -1.7533181512085264e-01  -1.7703112499543516e-01  -1.7833504747059487e-01  -1.7980974537014083e-01  -1.8166222556517178e-01  -1.8336513289435347e-01  -1.8513817579366759e-01  -1.8680941667184578e-01  -1.8863622986921366e-01  -1.9050666979825859e-01  -1.9233655261361599e-01  -1.9343491992193199e-01  -1.9365982727338038e-01  -1.9512965781278416e-01  -1.9552873884457889e-01  -1.8939582207244113e-01  -1.9604461021667782e-01  -2.1848593709540112e-01  -1.5453147354009911e-01  -1.9336009261516289e-02  1.2372536393465755e-03  5.5060621799190752e-03  -3.2615127010120211e-02  -7.7809524724819459e-02  -1.0573296788591480e-01  -1.1450815870849596e-01  -1.1861356674904065e-01  -1.2397490371239440e-01  -1.2860456396451236e-01  -1.3162740936056919e-01  -1.3459464033513802e-01  -1.3738561783038086e-01  -1.4049407770390637e-01  -1.4224850919987450e-01  -1.4444663752707029e-01  -1.4750503353789141e-01  -1.5033799748462270e-01  -1.5258472165231390e-01  -1.5465447693875126e-01  -1.5663068380394887e-01  -1.5856918458564767e-01  -1.6030846594439443e-01  -1.6190533760718334e-01  -1.6336536588466502e-01  -1.6515436381334878e-01  -1.6643099614704115e-01  -1.6687391868247603e-01  -1.6805735474718486e-01  -1.6545508183195437e-01  -1.6077364821584497e-01  -1.7996434597361624e-01  -1.6857948845838513e-01  -5.3926145733030069e-02  1.1645815889124136e-02  4.6898989437732675e-03  -2.3474653020606414e-02  -5.7844277805416747e-02  -7.6985170667889902e-02  -8.3984538902513658e-02  -8.9437554305974429e-02  -9.4240323319800298e-02  -9.8772179641733807e-02  -1.0292451725875669e-01  -1.0645176199505932e-01  -1.0949784173090821e-01  -1.1207343654322670e-01  -1.1443883542060257e-01  -1.1757360568753368e-01  -1.1932739575453560e-01  -1.2066002309351186e-01  -1.2238732535400436e-01  -1.2456843753163480e-01  -1.2672490765506603e-01  -1.2903312291929400e-01  -1.3131650760221714e-01  -1.3371294993467836e-01  -1.3577467106338700e-01  -1.3744661939158570e-01  -1.3885145569808210e-01  -1.3965391196995164e-01  -1.4051192052432038e-01  -1.4050499386876958e-01  -1.3411691132939296e-01  -1.4030883798091887e-01  -1.5264923707453867e-01  -6.8224645739777212e-02  1.9239197394690735e-02  3.7218777978953814e-03  -1.3119144456166727e-02  -3.6778696062660772e-02  -4.9713427020619330e-02  -5.5807077039297215e-02  -6.0874426345466498e-02  -6.5802192495790654e-02  -6.9737897189057416e-02  -7.2583479762007533e-02  -7.5369074878765055e-02  -7.8024259153081810e-02  -8.0373732731842146e-02  -8.2907137013157772e-02  -8.4862338554266115e-02  -8.6636113938115947e-02  -8.9826357106476629e-02  -9.2770085002422287e-02  -9.5310263876132867e-02  -9.7675630695414684e-02  -1.0016113581266806e-01  -1.0256299522732910e-01  -1.0497788254509233e-01  -1.0741122034871928e-01  -1.0978316941661304e-01  -1.1192580413569157e-01  -1.1330894247453648e-01  -1.1373804395215979e-01  -1.1484233962537295e-01  -1.1073004473677639e-01  -1.0741446547846513e-01  -1.2323638726880866e-01  -6.9778336239866151e-02  1.7834630985708411e-02  2.2411867742232186e-03  -2.5798241832066500e-03  -1.6237054318916748e-02  -2.3823341845770615e-02  -2.9147137854030405e-02  -3.3761428898685046e-02  -3.7767429151533881e-02  -4.1370673205536168e-02  -4.4766004700835700e-02  -4.7672176194871116e-02  -5.0133855730414081e-02  -5.2455581918664750e-02  -5.4729592103802127e-02  -5.6758065671707859e-02  -5.9520760895856853e-02  -6.1673056825793299e-02  -6.2984002939537154e-02  -6.5182339259286959e-02  -6.7844023142948004e-02  -7.0702890065378901e-02  -7.3706499730582797e-02  -7.6774899780074110e-02  -7.9762367561540953e-02  -8.2521310348108182e-02  -8.5011304213006927e-02  -8.7368158996713810e-02  -8.8594651308621070e-02  -8.9531769810449163e-02  -8.8328749499625422e-02  -8.1694825367280566e-02  -9.3153534309193681e-02  -6.1864548503548812e-02  1.3635085978799089e-02  5.8066862604592225e-04  7.3375581216567854e-03  3.6759187912332719e-03  5.9420443350583798e-04  -3.3621571873811902e-03  -6.8892376475956224e-03  -1.0204956235585592e-02  -1.2686383504180084e-02  -1.4897160577958301e-02  -1.6999348456905091e-02  -1.9068694092862940e-02  -2.1031802439744608e-02  -2.2930812423756428e-02  -2.4906618383095724e-02  -2.6940527967206196e-02  -2.8648012955500096e-02  -3.1794425074604414e-02  -3.5298882263770814e-02  -3.8201623087357715e-02  -4.1278383645435179e-02  -4.4573208306822293e-02  -4.8065339208220113e-02  -5.1702699443715069e-02  -5.5400598529633804e-02  -5.8858835606939039e-02  -6.1893815490858727e-02  -6.4307571957747459e-02  -6.5796712304643526e-02  -6.6752311076712562e-02  -6.0826384445762091e-02  -6.8096359714364077e-02  -5.2001212547649618e-02  9.3589194242253010e-03  -1.4977412599747853e-03  1.6446283950983159e-02  2.2895091151441924e-02  2.4366112535025117e-02  2.1656872276941685e-02  1.9072531028343120e-02  1.6678930109992645e-02  1.4306308359192785e-02  1.2082374195747984e-02  1.0303913524857700e-02  8.5985470662285589e-03  6.9702895257788668e-03  5.2796005273920022e-03  3.4884024270216943e-03  1.5562835054995954e-03  -8.4970878015155871e-04  -3.5196834700587753e-03  -5.2307275185616555e-03  -7.9202969069090204e-03  -1.1598698894281865e-02  -1.5437732266931344e-02  -1.9592908956266097e-02  -2.3933464635758614e-02  -2.8338290238223329e-02  -3.2826381160200216e-02  -3.7027528294679250e-02  -4.0966137650218212e-02  -4.3493270780526234e-02  -4.6467024915793534e-02  -4.3242257849381995e-02  -4.8392700140626112e-02  -4.1977132178631402e-02  6.2378866420598972e-03  -3.6267580053157946e-03  2.4364308073098348e-02  4.1770203436977252e-02  4.7749410345140901e-02  4.7255358493217242e-02  4.5259693942347509e-02  4.3991476121624858e-02  4.3156105121357945e-02  4.1984540013377772e-02  4.0765568139705326e-02  3.9547649720746383e-02  3.8397560469263486e-02  3.7124329306986448e-02  3.5711619189070981e-02  3.4041475795630514e-02  3.2100463716132469e-02  3.0003244884675137e-02  2.6869471380307736e-02  2.2393308187713578e-02  1.8545240661747033e-02  1.4326454450584966e-02  9.4140041850942040e-03  4.1549500287290540e-03  -1.3685945957319097e-03  -7.0957052168610715e-03  -1.2577489128836106e-02  -1.8199964777555956e-02  -2.2600090083050143e-02  -2.7481742342766902e-02  -2.7773211076803660e-02  -3.3073823038703265e-02  -3.3574337483466998e-02  4.0532658233094097e-03  -5.8374823365616576e-03  3.0615836486867103e-02  5.9893129034358124e-02  7.1138591176137453e-02  7.2439029877963176e-02  7.1159840205992503e-02  7.0243205593393837e-02  6.9046540623942568e-02  6.8235443863122969e-02  6.7750999652165383e-02  6.7117957956146043e-02  6.6429040345482221e-02  6.5587892746948998e-02  6.4542851595001463e-02  6.3134570090596046e-02  6.1286389045676667e-02  5.8768722502374825e-02  5.5655845159225968e-02  5.2730937372286721e-02  4.9370510716429353e-02  4.4108821561354525e-02  3.8578598678564530e-02  3.2538827492422984e-02  2.5834515942157573e-02  1.8719516624634568e-02  1.1504888812105686e-02  4.0752501439681472e-03  -2.6009115178468188e-03  -9.7458912669417218e-03  -1.3792483791188418e-02  -2.0764605264930003e-02  -2.6468272408496543e-02  2.5473545448865768e-03  -7.3471603582118180e-03  3.4163382363603625e-02  7.6338505755689928e-02  9.4241565404527078e-02  9.9113365485196558e-02  9.7726040175900600e-02  9.7811617649975605e-02  9.8587507911194736e-02  9.8423741293641551e-02  9.8201748317081436e-02  9.8138892274346093e-02  9.8081866771533271e-02  9.7808559779707552e-02  9.7260720867801145e-02  9.6251980061176801e-02  9.4778400267707452e-02  9.2671021278590143e-02  9.0000362089276961e-02  8.6172894124906141e-02  8.0684722492280703e-02  7.4628919154645396e-02  6.8701021631853487e-02  6.1279296885446990e-02  5.3263578836135736e-02  4.4794859438490764e-02  3.5614037338669108e-02  2.6123170265935778e-02  1.6771610611193862e-02  7.1503696741088635e-03  -8.1690963626635611e-04  -1.0571840910586078e-02  -2.0801549964105659e-02  1.4275269699447425e-03  -7.7345235934717770e-03  3.3504842605909892e-02  8.8518361606523085e-02  1.1598866345435674e-01  1.2446039320337966e-01  1.2459819241140183e-01  1.2348975233708365e-01  1.2328029692307918e-01  1.2396670541547380e-01  1.2487441524448677e-01  1.2555310785370108e-01  1.2615785243432201e-01  1.2654705922714285e-01  1.2667548234387402e-01  1.2620350668366598e-01  1.2511559965825453e-01  1.2309481643161582e-01  1.2011277615385862e-01  1.1602189163546360e-01  1.1146429461987370e-01  1.0634033640078931e-01  9.9470744687054441e-02  9.0722627827276178e-02  8.1615445451646867e-02  7.1252230112146042e-02  5.9908830238028926e-02  4.8315717779679662e-02  3.5931072216940460e-02  2.3494197356120926e-02  1.1551630545204901e-02  -1.7356021123061480e-03  -1.5992879769009684e-02  5.5826229493296999e-04  -5.9743155509118509e-03  2.7594963825465415e-02  9.2906695469311462e-02  1.3445432501172863e-01  1.5059712317730600e-01  1.5203620268505405e-01  1.5188949775903043e-01  1.5348880259131176e-01  1.5430483074017010e-01  1.5526029671466662e-01  1.5671379671090685e-01  1.5827076308472332e-01  1.5945842506544455e-01  1.6029107262318881e-01  1.6043732592012880e-01  1.5984744574896431e-01  1.5827124428171932e-01  1.5570550616240922e-01  1.5198731335128113e-01  1.4683574411891342e-01  1.3959727794032159e-01  1.3060301531985044e-01  1.2105396326051776e-01  1.1087480286705313e-01  9.8446220627195560e-02  8.4998565501591336e-02  7.0843061373248223e-02  5.5222255941886705e-02  3.9760046390128700e-02  2.3553432223918133e-02  6.1554109120993241e-03  -1.1834101882060947e-02  -4.8545164059008481e-05  -3.5979105772998856e-03  1.6166524352183541e-02  8.5857268014590232e-02  1.4510296549860505e-01  1.7139781255820885e-01  1.7901647446128091e-01  1.7711129221181626e-01  1.7637469244812184e-01  1.7875290915180397e-01  1.8134787719858633e-01  1.8363652230211464e-01  1.8613174934356735e-01  1.8849027510261870e-01  1.9035843326210664e-01  1.9154971312722716e-01  1.9165505238677780e-01  1.9067239357434515e-01  1.8813430939735276e-01  1.8417455508109828e-01  1.7838855954049884e-01  1.7147578332438937e-01  1.6340066390864935e-01  1.5400515141327692e-01  1.4130450544238221e-01  1.2637632507295077e-01  1.1130116567826907e-01  9.4183474673628823e-02  7.5027925752775670e-02  5.6275336430386180e-02  3.5426941832338993e-02  1.3305002053730450e-02  -7.8350055286739110e-03  -1.6007449963452699e-04  -9.4680085160467396e-04  5.6687435666137572e-03  6.7239193010380477e-02  1.4387047089506361e-01  1.8860650264863482e-01  2.0353456523336258e-01  2.0708840746744003e-01  2.0738384886953717e-01  2.0822042838791707e-01  2.1118353121323385e-01  2.1511154176936356e-01  2.1886510840421722e-01  2.2260560745065591e-01  2.2544080832444513e-01  2.2769209300904864e-01  2.2841698921897338e-01  2.