<?xml version="1.0"?>
<VTKFile type="UnstructuredGrid"  version="0.1"  >
<UnstructuredGrid>
<Piece  NumberOfPoints="1089" NumberOfCells="1024">
<Points>
<DataArray  type="Float64"  NumberOfComponents="3"  format="ascii">0 0 0  0.03125 0 0  0.0625 0 0  0.09375 0 0  0.125 0 0  0.15625 0 0  0.1875 0 0  0.21875 0 0  0.25 0 0  0.28125 0 0  0.3125 0 0  0.34375 0 0  0.375 0 0  0.40625 0 0  0.4375 0 0  0.46875 0 0  0.5 0 0  0.53125 0 0  0.5625 0 0  0.59375 0 0  0.625 0 0  0.65625 0 0  0.6875 0 0  0.71875 0 0  0.75 0 0  0.78125 0 0  0.8125 0 0  0.84375 0 0  0.875 0 0  0.90625 0 0  0.9375 0 0  0.96875 0 0  1 0 0  0 0.03125 0  0.03125 0.03125 0  0.0625 0.03125 0  0.09375 0.03125 0  0.125 0.03125 0  0.15625 0.03125 0  0.1875 0.03125 0  0.21875 0.03125 0  0.25 0.03125 0  0.28125 0.03125 0  0.3125 0.03125 0  0.34375 0.03125 0  0.375 0.03125 0  0.40625 0.03125 0  0.4375 0.03125 0  0.46875 0.03125 0  0.5 0.03125 0  0.53125 0.03125 0  0.5625 0.03125 0  0.59375 0.03125 0  0.625 0.03125 0  0.65625 0.03125 0  0.6875 0.03125 0  0.71875 0.03125 0  0.75 0.03125 0  0.78125 0.03125 0  0.8125 0.03125 0  0.84375 0.03125 0  0.875 0.03125 0  0.90625 0.03125 0  0.9375 0.03125 0  0.96875 0.03125 0  1 0.03125 0  0 0.0625 0  0.03125 0.0625 0  0.0625 0.0625 0  0.09375 0.0625 0  0.125 0.0625 0  0.15625 0.0625 0  0.1875 0.0625 0  0.21875 0.0625 0  0.25 0.0625 0  0.28125 0.0625 0  0.3125 0.0625 0  0.34375 0.0625 0  0.375 0.0625 0  0.40625 0.0625 0  0.4375 0.0625 0  0.46875 0.0625 0  0.5 0.0625 0  0.53125 0.0625 0  0.5625 0.0625 0  0.59375 0.0625 0  0.625 0.0625 0  0.65625 0.0625 0  0.6875 0.0625 0  0.71875 0.0625 0  0.75 0.0625 0  0.78125 0.0625 0  0.8125 0.0625 0  0.84375 0.0625 0  0.875 0.0625 0  0.90625 0.0625 0  0.9375 0.0625 0  0.96875 0.0625 0  1 0.0625 0  0 0.09375 0  0.03125 0.09375 0  0.0625 0.09375 0  0.09375 0.09375 0  0.125 0.09375 0  0.15625 0.09375 0  0.1875 0.09375 0  0.21875 0.09375 0  0.25 0.09375 0  0.28125 0.09375 0  0.3125 0.09375 0  0.34375 0.09375 0  0.375 0.09375 0  0.40625 0.09375 0  0.4375 0.09375 0  0.46875 0.09375 0  0.5 0.09375 0  0.53125 0.09375 0  0.5625 0.09375 0  0.59375 0.09375 0  0.625 0.09375 0  0.65625 0.09375 0  0.6875 0.09375 0  0.71875 0.09375 0  0.75 0.09375 0  0.78125 0.09375 0  0.8125 0.09375 0  0.84375 0.09375 0  0.875 0.09375 0  0.90625 0.09375 0  0.9375 0.09375 0  0.96875 0.09375 0  1 0.09375 0  0 0.125 0  0.03125 0.125 0  0.0625 0.125 0  0.09375 0.125 0  0.125 0.125 0  0.15625 0.125 0  0.1875 0.125 0  0.21875 0.125 0  0.25 0.125 0  0.28125 0.125 0  0.3125 0.125 0  0.34375 0.125 0  0.375 0.125 0  0.40625 0.125 0  0.4375 0.125 0  0.46875 0.125 0  0.5 0.125 0  0.53125 0.125 0  0.5625 0.125 0  0.59375 0.125 0  0.625 0.125 0  0.65625 0.125 0  0.6875 0.125 0  0.71875 0.125 0  0.75 0.125 0  0.78125 0.125 0  0.8125 0.125 0  0.84375 0.125 0  0.875 0.125 0  0.90625 0.125 0  0.9375 0.125 0  0.96875 0.125 0  1 0.125 0  0 0.15625 0  0.03125 0.15625 0  0.0625 0.15625 0  0.09375 0.15625 0  0.125 0.15625 0  0.15625 0.15625 0  0.1875 0.15625 0  0.21875 0.15625 0  0.25 0.15625 0  0.28125 0.15625 0  0.3125 0.15625 0  0.34375 0.15625 0  0.375 0.15625 0  0.40625 0.15625 0  0.4375 0.15625 0  0.46875 0.15625 0  0.5 0.15625 0  0.53125 0.15625 0  0.5625 0.15625 0  0.59375 0.15625 0  0.625 0.15625 0  0.65625 0.15625 0  0.6875 0.15625 0  0.71875 0.15625 0  0.75 0.15625 0  0.78125 0.15625 0  0.8125 0.15625 0  0.84375 0.15625 0  0.875 0.15625 0  0.90625 0.15625 0  0.9375 0.15625 0  0.96875 0.15625 0  1 0.15625 0  0 0.1875 0  0.03125 0.1875 0  0.0625 0.1875 0  0.09375 0.1875 0  0.125 0.1875 0  0.15625 0.1875 0  0.1875 0.1875 0  0.21875 0.1875 0  0.25 0.1875 0  0.28125 0.1875 0  0.3125 0.1875 0  0.34375 0.1875 0  0.375 0.1875 0  0.40625 0.1875 0  0.4375 0.1875 0  0.46875 0.1875 0  0.5 0.1875 0  0.53125 0.1875 0  0.5625 0.1875 0  0.59375 0.1875 0  0.625 0.1875 0  0.65625 0.1875 0  0.6875 0.1875 0  0.71875 0.1875 0  0.75 0.1875 0  0.78125 0.1875 0  0.8125 0.1875 0  0.84375 0.1875 0  0.875 0.1875 0  0.90625 0.1875 0  0.9375 0.1875 0  0.96875 0.1875 0  1 0.1875 0  0 0.21875 0  0.03125 0.21875 0  0.0625 0.21875 0  0.09375 0.21875 0  0.125 0.21875 0  0.15625 0.21875 0  0.1875 0.21875 0  0.21875 0.21875 0  0.25 0.21875 0  0.28125 0.21875 0  0.3125 0.21875 0  0.34375 0.21875 0  0.375 0.21875 0  0.40625 0.21875 0  0.4375 0.21875 0  0.46875 0.21875 0  0.5 0.21875 0  0.53125 0.21875 0  0.5625 0.21875 0  0.59375 0.21875 0  0.625 0.21875 0  0.65625 0.21875 0  0.6875 0.21875 0  0.71875 0.21875 0  0.75 0.21875 0  0.78125 0.21875 0  0.8125 0.21875 0  0.84375 0.21875 0  0.875 0.21875 0  0.90625 0.21875 0  0.9375 0.21875 0  0.96875 0.21875 0  1 0.21875 0  0 0.25 0  0.03125 0.25 0  0.0625 0.25 0  0.09375 0.25 0  0.125 0.25 0  0.15625 0.25 0  0.1875 0.25 0  0.21875 0.25 0  0.25 0.25 0  0.28125 0.25 0  0.3125 0.25 0  0.34375 0.25 0  0.375 0.25 0  0.40625 0.25 0  0.4375 0.25 0  0.46875 0.25 0  0.5 0.25 0  0.53125 0.25 0  0.5625 0.25 0  0.59375 0.25 0  0.625 0.25 0  0.65625 0.25 0  0.6875 0.25 0  0.71875 0.25 0  0.75 0.25 0  0.78125 0.25 0  0.8125 0.25 0  0.84375 0.25 0  0.875 0.25 0  0.90625 0.25 0  0.9375 0.25 0  0.96875 0.25 0  1 0.25 0  0 0.28125 0  0.03125 0.28125 0  0.0625 0.28125 0  0.09375 0.28125 0  0.125 0.28125 0  0.15625 0.28125 0  0.1875 0.28125 0  0.21875 0.28125 0  0.25 0.28125 0  0.28125 0.28125 0  0.3125 0.28125 0  0.34375 0.28125 0  0.375 0.28125 0  0.40625 0.28125 0  0.4375 0.28125 0  0.46875 0.28125 0  0.5 0.28125 0  0.53125 0.28125 0  0.5625 0.28125 0  0.59375 0.28125 0  0.625 0.28125 0  0.65625 0.28125 0  0.6875 0.28125 0  0.71875 0.28125 0  0.75 0.28125 0  0.78125 0.28125 0  0.8125 0.28125 0  0.84375 0.28125 0  0.875 0.28125 0  0.90625 0.28125 0  0.9375 0.28125 0  0.96875 0.28125 0  1 0.28125 0  0 0.3125 0  0.03125 0.3125 0  0.0625 0.3125 0  0.09375 0.3125 0  0.125 0.3125 0  0.15625 0.3125 0  0.1875 0.3125 0  0.21875 0.3125 0  0.25 0.3125 0  0.28125 0.3125 0  0.3125 0.3125 0  0.34375 0.3125 0  0.375 0.3125 0  0.40625 0.3125 0  0.4375 0.3125 0  0.46875 0.3125 0  0.5 0.3125 0  0.53125 0.3125 0  0.5625 0.3125 0  0.59375 0.3125 0  0.625 0.3125 0  0.65625 0.3125 0  0.6875 0.3125 0  0.71875 0.3125 0  0.75 0.3125 0  0.78125 0.3125 0  0.8125 0.3125 0  0.84375 0.3125 0  0.875 0.3125 0  0.90625 0.3125 0  0.9375 0.3125 0  0.96875 0.3125 0  1 0.3125 0  0 0.34375 0  0.03125 0.34375 0  0.0625 0.34375 0  0.09375 0.34375 0  0.125 0.34375 0  0.15625 0.34375 0  0.1875 0.34375 0  0.21875 0.34375 0  0.25 0.34375 0  0.28125 0.34375 0  0.3125 0.34375 0  0.34375 0.34375 0  0.375 0.34375 0  0.40625 0.34375 0  0.4375 0.34375 0  0.46875 0.34375 0  0.5 0.34375 0  0.53125 0.34375 0  0.5625 0.34375 0  0.59375 0.34375 0  0.625 0.34375 0  0.65625 0.34375 0  0.6875 0.34375 0  0.71875 0.34375 0  0.75 0.34375 0  0.78125 0.34375 0  0.8125 0.34375 0  0.84375 0.34375 0  0.875 0.34375 0  0.90625 0.34375 0  0.9375 0.34375 0  0.96875 0.34375 0  1 0.34375 0  0 0.375 0  0.03125 0.375 0  0.0625 0.375 0  0.09375 0.375 0  0.125 0.375 0  0.15625 0.375 0  0.1875 0.375 0  0.21875 0.375 0  0.25 0.375 0  0.28125 0.375 0  0.3125 0.375 0  0.34375 0.375 0  0.375 0.375 0  0.40625 0.375 0  0.4375 0.375 0  0.46875 0.375 0  0.5 0.375 0  0.53125 0.375 0  0.5625 0.375 0  0.59375 0.375 0  0.625 0.375 0  0.65625 0.375 0  0.6875 0.375 0  0.71875 0.375 0  0.75 0.375 0  0.78125 0.375 0  0.8125 0.375 0  0.84375 0.375 0  0.875 0.375 0  0.90625 0.375 0  0.9375 0.375 0  0.96875 0.375 0  1 0.375 0  0 0.40625 0  0.03125 0.40625 0  0.0625 0.40625 0  0.09375 0.40625 0  0.125 0.40625 0  0.15625 0.40625 0  0.1875 0.40625 0  0.21875 0.40625 0  0.25 0.40625 0  0.28125 0.40625 0  0.3125 0.40625 0  0.34375 0.40625 0  0.375 0.40625 0  0.40625 0.40625 0  0.4375 0.40625 0  0.46875 0.40625 0  0.5 0.40625 0  0.53125 0.40625 0  0.5625 0.40625 0  0.59375 0.40625 0  0.625 0.40625 0  0.65625 0.40625 0  0.6875 0.40625 0  0.71875 0.40625 0  0.75 0.40625 0  0.78125 0.40625 0  0.8125 0.40625 0  0.84375 0.40625 0  0.875 0.40625 0  0.90625 0.40625 0  0.9375 0.40625 0  0.96875 0.40625 0  1 0.40625 0  0 0.4375 0  0.03125 0.4375 0  0.0625 0.4375 0  0.09375 0.4375 0  0.125 0.4375 0  0.15625 0.4375 0  0.1875 0.4375 0  0.21875 0.4375 0  0.25 0.4375 0  0.28125 0.4375 0  0.3125 0.4375 0  0.34375 0.4375 0  0.375 0.4375 0  0.40625 0.4375 0  0.4375 0.4375 0  0.46875 0.4375 0  0.5 0.4375 0  0.53125 0.4375 0  0.5625 0.4375 0  0.59375 0.4375 0  0.625 0.4375 0  0.65625 0.4375 0  0.6875 0.4375 0  0.71875 0.4375 0  0.75 0.4375 0  0.78125 0.4375 0  0.8125 0.4375 0  0.84375 0.4375 0  0.875 0.4375 0  0.90625 0.4375 0  0.9375 0.4375 0  0.96875 0.4375 0  1 0.4375 0  0 0.46875 0  0.03125 0.46875 0  0.0625 0.46875 0  0.09375 0.46875 0  0.125 0.46875 0  0.15625 0.46875 0  0.1875 0.46875 0  0.21875 0.46875 0  0.25 0.46875 0  0.28125 0.46875 0  0.3125 0.46875 0  0.34375 0.46875 0  0.375 0.46875 0  0.40625 0.46875 0  0.4375 0.46875 0  0.46875 0.46875 0  0.5 0.46875 0  0.53125 0.46875 0  0.5625 0.46875 0  0.59375 0.46875 0  0.625 0.46875 0  0.65625 0.46875 0  0.6875 0.46875 0  0.71875 0.46875 0  0.75 0.46875 0  0.78125 0.46875 0  0.8125 0.46875 0  0.84375 0.46875 0  0.875 0.46875 0  0.90625 0.46875 0  0.9375 0.46875 0  0.96875 0.46875 0  1 0.46875 0  0 0.5 0  0.03125 0.5 0  0.0625 0.5 0  0.09375 0.5 0  0.125 0.5 0  0.15625 0.5 0  0.1875 0.5 0  0.21875 0.5 0  0.25 0.5 0  0.28125 0.5 0  0.3125 0.5 0  0.34375 0.5 0  0.375 0.5 0  0.40625 0.5 0  0.4375 0.5 0  0.46875 0.5 0  0.5 0.5 0  0.53125 0.5 0  0.5625 0.5 0  0.59375 0.5 0  0.625 0.5 0  0.65625 0.5 0  0.6875 0.5 0  0.71875 0.5 0  0.75 0.5 0  0.78125 0.5 0  0.8125 0.5 0  0.84375 0.5 0  0.875 0.5 0  0.90625 0.5 0  0.9375 0.5 0  0.96875 0.5 0  1 0.5 0  0 0.53125 0  0.03125 0.53125 0  0.0625 0.53125 0  0.09375 0.53125 0  0.125 0.53125 0  0.15625 0.53125 0  0.1875 0.53125 0  0.21875 0.53125 0  0.25 0.53125 0  0.28125 0.53125 0  0.3125 0.53125 0  0.34375 0.53125 0  0.375 0.53125 0  0.40625 0.53125 0  0.4375 0.53125 0  0.46875 0.53125 0  0.5 0.53125 0  0.53125 0.53125 0  0.5625 0.53125 0  0.59375 0.53125 0  0.625 0.53125 0  0.65625 0.53125 0  0.6875 0.53125 0  0.71875 0.53125 0  0.75 0.53125 0  0.78125 0.531
[...]
<PointData  Scalars="u_sol"> 
<DataArray  type="Float64"  Name="u_sol"  format="ascii">-2.1140874818503924e-05  -1.0548936002263878e-04  5.4449161927632350e-04  1.2222129066216565e-03  1.5012319203001269e-03  1.6235632112514551e-03  2.4326907280171296e-03  3.5807319215238461e-03  4.8046616352617703e-03  9.3749404430934751e-03  1.7064582219152469e-02  2.2471489942103309e-02  2.1616999570581878e-02  1.3179872215869810e-02  -1.3073685814446766e-03  -1.7525051698299470e-02  -2.9804346119672129e-02  -3.5008003480410624e-02  -3.2361603582604544e-02  -2.1249660983082889e-02  -3.6369814049165613e-03  1.5693056114240937e-02  3.0823979536534318e-02  3.7648760464257837e-02  3.6653388674957370e-02  2.7666499578986235e-02  1.3931548576749738e-02  4.4907202534057618e-03  5.5306792648675295e-04  -6.4777319248828891e-04  -5.4913771596417054e-04  -3.8034002376287969e-04  4.6703769749272924e-05  -4.0782781242465287e-04  1.9521965148489929e-03  7.7681428691547816e-03  1.3153861892676323e-02  1.5525952031661225e-02  1.6009794267323029e-02  1.5473311343334217e-02  1.3953565192643512e-02  8.1497678893332499e-03  -1.2360443846528098e-02  -5.4118067895503684e-02  -1.1279841501019727e-01  -1.7786454630379894e-01  -2.3780607338477833e-01  -2.8422383000203549e-01  -3.1315417704954518e-01  -3.2412315080244786e-01  -3.1689854797390066e-01  -2.9069549225528668e-01  -2.4612752527410622e-01  -1.8553459434386196e-01  -1.1481618370422876e-01  -4.4536313931886881e-02  1.2771095652563904e-02  4.9042327930611009e-02  6.6800915142660622e-02  6.8382323879559781e-02  5.3598426000512428e-02  3.3004735856875911e-02  1.6667371978104677e-02  6.4980883211156124e-03  1.3690939591989918e-03  -2.8844666015604759e-04  -7.7490499583360056e-04  3.7561703937886532e-03  1.2021328879374108e-02  1.6763170343097895e-02  1.6312282465020391e-02  1.1929260564823850e-02  2.5651936592016211e-03  -2.3090342371728381e-02  -7.7883620255228533e-02  -1.5744238263876656e-01  -2.4359045570518470e-01  -3.1870890778350303e-01  -3.7439286718137221e-01  -4.1104445725794903e-01  -4.3311883901439557e-01  -4.4500009043111055e-01  -4.4882182279744864e-01  -4.4483498176722658e-01  -4.3242311562945374e-01  -4.0929244554319344e-01  -3.7133888096122619e-01  -3.1420346702860230e-01  -2.3748229346845229e-01  -1.5052861173373316e-01  -7.2704755646658806e-02  -2.0491292790037412e-02  1.0479792547373233e-02  2.9496811878402005e-02  3.2420106154228481e-02  2.3127941152340528e-02  1.2138905908324454e-02  3.4500265746638570e-03  -6.1464925560555440e-04  -1.2111545041968768e-03  5.9901442096697956e-03  1.4833947806612482e-02  1.4015719461153375e-02  5.4978145143898781e-03  -1.1629366548759604e-02  -5.4066588416018378e-02  -1.3156930864174396e-01  -2.2747028681957240e-01  -3.1485109127021238e-01  -3.7770625685497949e-01  -4.1585193127314363e-01  -4.3687972669515157e-01  -4.4818305917831386e-01  -4.5388972188187254e-01  -4.5582840675218034e-01  -4.5542206030312204e-01  -4.5419479048968237e-01  -4.5276538087819013e-01  -4.5062234338161472e-01  -4.4500192899418911e-01  -4.2852736371787747e-01  -3.8901926754278748e-01  -3.1593163441386152e-01  -2.1417396888581031e-01  -1.1216326121900909e-01  -4.4238196430399251e-02  -1.1767959620702925e-02  6.8351088909593630e-03  1.3872199652233613e-02  1.0100012040140799e-02  3.5290027076571918e-03  -6.8321578641278291e-04  -1.5459266704047527e-03  8.0213444131544843e-03  1.2256113309824851e-02  1.2177809775420062e-03  -2.1027221768350129e-02  -7.1401713769212061e-02  -1.5842626663037293e-01  -2.5733565827012589e-01  -3.3635240179064219e-01  -3.8303187262873400e-01  -4.0356945729684612e-01  -4.0916838123754112e-01  -4.0776611281741054e-01  -4.0346434496442279e-01  -3.9859657039010554e-01  -3.9459995287344901e-01  -3.9186862782335036e-01  -3.9006850901976903e-01  -3.8964417698439852e-01  -3.9223167001970694e-01  -3.9984058200603817e-01  -4.1265630984936569e-01  -4.2373762835449752e-01  -4.1414837164640567e-01  -3.5938490364368275e-01  -2.5346931441743453e-01  -1.3029567561231004e-01  -4.5126555800445195e-02  -1.1554969821615399e-02  1.3314775040002536e-03  5.2443643584637349e-03  1.8694084958027469e-03  -3.3096092400983250e-04  -1.0148917820452235e-03  7.2311891069985722e-03  7.1888824335436009e-04  -2.3381426182844244e-02  -7.3137826763204808e-02  -1.5967752811132452e-01  -2.5626243894382539e-01  -3.2724953201330736e-01  -3.6166452590471909e-01  -3.7018225120334325e-01  -3.6695442998923267e-01  -3.6103663678523834e-01  -3.5689932738593105e-01  -3.5595949411222205e-01  -3.5728324288998858e-01  -3.5883989042334369e-01  -3.5911711660991730e-01  -3.5784716512443659e-01  -3.5521034864951989e-01  -3.5161412195957303e-01  -3.4870924267143344e-01  -3.5060999106305041e-01  -3.6332153629008129e-01  -3.8685656614277392e-01  -4.0116334758175420e-01  -3.6734267815002952e-01  -2.6405894695535126e-01  -1.2795606331862855e-01  -3.4467407684558984e-02  -4.9612366730691108e-03  1.0191114289825809e-03  1.3807396817983588e-03  -3.8278504156146907e-04  4.7315841723041135e-04  1.2483770946908749e-03  -1.8727322183674042e-02  -6.3108427636984252e-02  -1.4156668513574786e-01  -2.3406731907178902e-01  -3.0148841883418404e-01  -3.3019328805553472e-01  -3.3308487791004943e-01  -3.2716116612853441e-01  -3.2252035974294863e-01  -3.2271528017291429e-01  -3.2654072484184371e-01  -3.3083921983021980e-01  -3.3358877262942849e-01  -3.3478066971120141e-01  -3.3521186677056414e-01  -3.3525919645265129e-01  -3.3496099375555216e-01  -3.3405435426382279e-01  -3.3158459361353870e-01  -3.2645191626648012e-01  -3.2057745103080326e-01  -3.2350849375222607e-01  -3.4578180408437631e-01  -3.7212909006093103e-01  -3.5120041464739055e-01  -2.4751812505856721e-01  -1.0478256854237840e-01  -1.7741711144107181e-02  7.8158655630189801e-04  1.1717415863704637e-03  -1.7313929559536142e-04  2.1311470969183435e-03  -8.7677386787726689e-03  -4.5001138513102446e-02  -1.1108943807235910e-01  -1.9694464948277676e-01  -2.6546785361566250e-01  -2.9515189794843832e-01  -2.9724848945388294e-01  -2.9133634303367306e-01  -2.8872311405299922e-01  -2.9167678571041139e-01  -2.9666410745872818e-01  -2.9988668512427313e-01  -3.0088092481721440e-01  -3.0104295740103931e-01  -3.0121435599234614e-01  -3.0139927265751876e-01  -3.0159338528466090e-01  -3.0198221297535849e-01  -3.0293645998250446e-01  -3.0480736444754825e-01  -3.0678334703562388e-01  -3.0543885697853740e-01  -2.9776007380279756e-01  -2.9265479299253550e-01  -3.1023930471416883e-01  -3.4053076263849796e-01  -3.1990316279884634e-01  -2.0685423012451393e-01  -6.5200363444435958e-02  -2.6693940946280969e-03  1.1199745452018855e-03  2.8925540214045346e-04  3.6767167922728233e-03  -2.0378963882790896e-02  -7.3604802114836096e-02  -1.4905131939532401e-01  -2.2009902586488636e-01  -2.5700489798342913e-01  -2.6254119347551813e-01  -2.5757954740098671e-01  -2.5592093932413856e-01  -2.5973316679965597e-01  -2.6442190596566012e-01  -2.6640766429167623e-01  -2.6680577882328027e-01  -2.6756742040644621e-01  -2.6882905155218223e-01  -2.7002141390400641e-01  -2.7090282192828757e-01  -2.7142019633127845e-01  -2.7158386541456908e-01  -2.7147050524183830e-01  -2.7149404388246173e-01  -2.7291672658822441e-01  -2.7674468459430146e-01  -2.7930490560555182e-01  -2.7279219668097482e-01  -2.6414427598105217e-01  -2.8069202792380332e-01  -3.1021496844550978e-01  -2.7468345330564004e-01  -1.4461810423063221e-01  -2.2228054934987203e-02  3.5719423114900493e-03  -1.6666883836495218e-03  4.9856875803278109e-03  -3.1207713209781888e-02  -9.4867095537259694e-02  -1.6471782444835953e-01  -2.1273287497409296e-01  -2.2699872654906014e-01  -2.2445405368167956e-01  -2.2280290877946474e-01  -2.2650602360950739e-01  -2.3108515132440852e-01  -2.3289149226772246e-01  -2.3365168527067576e-01  -2.3540156345164812e-01  -2.3753858267658234e-01  -2.3929524348349096e-01  -2.4065876945680642e-01  -2.4175917124652399e-01  -2.4271688165107844e-01  -2.4360218494861158e-01  -2.4435825496662844e-01  -2.4462834844465894e-01  -2.4398323392273927e-01  -2.4369980345859099e-01  -2.4697529376504357e-01  -2.5096646004596362e-01  -2.4430415473145520e-01  -2.3551568222517982e-01  -2.5654962593737579e-01  -2.7753651626633258e-01  -2.1010436120428874e-01  -6.8786781512552256e-02  2.2341045630095715e-03  -1.3172095501279523e-03  5.7650966025241251e-03  -3.7826171865889567e-02  -1.0240091844695298e-01  -1.5846226629475152e-01  -1.8705310714528825e-01  -1.9075266009983671e-01  -1.8931021174225612e-01  -1.9228403925848042e-01  -1.9716955253616031e-01  -1.9963523589372814e-01  -2.0088328612202752e-01  -2.0314701017695808e-01  -2.0558358106607724e-01  -2.0734885761765831e-01  -2.0873044585641462e-01  -2.0995143401201535e-01  -2.1110357452509096e-01  -2.1220564167423275e-01  -2.1326454291408373e-01  -2.1439864632602773e-01  -2.1581698489221399e-01  -2.1717767830357371e-01  -2.1696882361033948e-01  -2.1576489174996596e-01  -2.1857480036486840e-01  -2.2210304601729516e-01  -2.1282672604475944e-01  -2.0857761406998324e-01  -2.3629904531074736e-01  -2.3119071313256134e-01  -1.2164894428302872e-01  -8.1071521982687429e-03  2.8413636922470539e-03  5.9290327203991456e-03  -3.8433951875341842e-02  -9.6438096549921942e-02  -1.3784358936514104e-01  -1.5430614859051464e-01  -1.5554032006614171e-01  -1.5757586335726834e-01  -1.6256859462266132e-01  -1.6628610062041277e-01  -1.6811912205221691e-01  -1.7051597639787555e-01  -1.7316443239076360e-01  -1.7505786581652272e-01  -1.7665280033420405e-01  -1.7826372577593533e-01  -1.7985561013586382e-01  -1.8135887715187335e-01  -1.8273551935323204e-01  -1.8401031675254126e-01  -1.8512761166898131e-01  -1.8609194449982192e-01  -1.8746507195290227e-01  -1.8939372339869168e-01  -1.8947792569977115e-01  -1.8803832430161910e-01  -1.9134845945544468e-01  -1.9208319575113053e-01  -1.7975583518201288e-01  -1.8749618457214715e-01  -2.1140842874929444e-01  -1.5400098471257156e-01  -3.0653618794549396e-02  8.7399724683454860e-03  5.5474311363634555e-03  -3.3541297597855985e-02  -8.1298424584257359e-02  -1.1060824246572319e-01  -1.2092870831323697e-01  -1.2306842701490060e-01  -1.2750830432444824e-01  -1.3240625852845395e-01  -1.3530951986529002e-01  -1.3771441561549172e-01  -1.4053431659713589e-01  -1.4275236764022994e-01  -1.4456752397147218e-01  -1.4645666791668810e-01  -1.4828979926733643e-01  -1.4998127766644309e-01  -1.5157850852329305e-01  -1.5315568539986238e-01  -1.5473165507686865e-01  -1.5633974942115864e-01  -1.5781974859022904e-01  -1.5880266831125700e-01  -1.6006547956010594e-01  -1.6212455140834586e-01  -1.6174076393383408e-01  -1.6085054129180840e-01  -1.6477862932155479e-01  -1.5909345132820552e-01  -1.5027904888833754e-01  -1.7192753855386508e-01  -1.5876682605854248e-01  -5.0617698898017455e-02  1.3599527777806894e-02  4.7499401506766606e-03  -2.5173490188723401e-02  -6.1496425414368810e-02  -8.1871290137338612e-02  -8.9355823248329108e-02  -9.2884827467064709e-02  -9.8057008173939239e-02  -1.0229323606774446e-01  -1.0507863693683650e-01  -1.0786196635758534e-01  -1.1045486374373975e-01  -1.1249147728583131e-01  -1.1447981097884430e-01  -1.1643690833398873e-01  -1.1822460449310390e-01  -1.1995716569099589e-01  -1.2171000132903032e-01  -1.2348086577501273e-01  -1.2526054772443804e-01  -1.2703255745586461e-01  -1.2895464000843382e-01  -1.3088150233974508e-01  -1.3205784175425880e-01  -1.3360324658062628e-01  -1.3549233489975548e-01  -1.3417090365797416e-01  -1.3531998882289367e-01  -1.3661184845812183e-01  -1.2460149088289525e-01  -1.3192641528497775e-01  -1.4190810996344108e-01  -6.1275884889845998e-02  1.5025954564790131e-02  3.5736211037618796e-03  -1.5036141145321529e-02  -4.0298066209955040e-02  -5.3937450701582096e-02  -6.0000291022979206e-02  -6.4219899870521582e-02  -6.9085265001818524e-02  -7.2723834497026060e-02  -7.5506522900973844e-02  -7.8218159712454730e-02  -8.0528817896949961e-02  -8.2534121182820580e-02  -8.4517285273732201e-02  -8.6373762415990332e-02  -8.8172945897001670e-02  -9.0030349646826643e-02  -9.1938370524063284e-02  -9.3904928407351707e-02  -9.5963561155403304e-02  -9.8087383399336661e-02  -1.0012706372445618e-01  -1.0238241222979308e-01  -1.0464384183439213e-01  -1.0604487180985216e-01  -1.0828736646085116e-01  -1.0921389479280137e-01  -1.0810799437005762e-01  -1.1127619669771720e-01  -1.0400170734448118e-01  -9.9566039579564988e-02  -1.1559763607472838e-01  -6.2632814119985086e-02  1.3558582605356714e-02  2.1719584823086798e-03  -4.6336161183718732e-03  -1.9126462639373319e-02  -2.7544138048567191e-02  -3.2400632227033418e-02  -3.6618705245251647e-02  -4.0669959194216267e-02  -4.3794182936210291e-02  -4.6385449750185458e-02  -4.8801670165769258e-02  -5.0853639040142652e-02  -5.2749144177703496e-02  -5.4580390814932996e-02  -5.6346450109144221e-02  -5.8156831336404181e-02  -6.0051515528050235e-02  -6.2045040458789384e-02  -6.4190144814110089e-02  -6.6474595972793454e-02  -6.8947053412006590e-02  -7.1585278565648044e-02  -7.4081279437467590e-02  -7.6909929776931105e-02  -7.9384219734232112e-02  -8.1418568790519660e-02  -8.4175441966721845e-02  -8.3646976575181900e-02  -8.5733772854350909e-02  -8.4346930017543467e-02  -7.5033989615110167e-02  -8.8875830979673442e-02  -5.7862647861416185e-02  1.0834690383165270e-02  1.7477075327391848e-04  6.0234414192439720e-03  1.1664962217447857e-03  -2.2532131915975954e-03  -6.1037149185212587e-03  -9.6828218800741293e-03  -1.2833098307612544e-02  -1.5355826048810165e-02  -1.7608638339781359e-02  -1.9605400102098970e-02  -2.1372572236397547e-02  -2.3037224269404105e-02  -2.4663655228971890e-02  -2.6303189010088050e-02  -2.8047850937643764e-02  -2.9931184733239351e-02  -3.2013689075095525e-02  -3.4323027773943394e-02  -3.6902985869103525e-02  -3.9671938845953374e-02  -4.2733576978628070e-02  -4.5993263387452833e-02  -4.9196093728001079e-02  -5.2794484310064782e-02  -5.5512228460876153e-02  -5.9025669232951758e-02  -6.0749947853517901e-02  -6.1887946917299215e-02  -6.4611229753254798e-02  -5.5890162684721294e-02  -6.5966223561689463e-02  -5.0421394328152472e-02  8.0799098439352478e-03  -1.4150487988316138e-03  1.6078786421244200e-02  2.0920483393717076e-02  2.2116271598755895e-02  1.9678720881299270e-02  1.6670296872920036e-02  1.4635480441012460e-02  1.2665811136926716e-02  1.0929306259653203e-02  9.3727901141144824e-03  7.9941082531907477e-03  6.6241135877049395e-03  5.2754677748260755e-03  3.8223249936347706e-03  2.2117914748010625e-03  3.7188569863837981e-04  -1.7587514670489319e-03  -4.2190173293596266e-03  -7.0237671093092129e-03  -1.0249886449655091e-02  -1.3732146531028031e-02  -1.7672437502337133e-02  -2.1667331297545410e-02  -2.6071301472858615e-02  -3.0200860814433891e-02  -3.4310891756146822e-02  -3.8445143277286882e-02  -4.0084732975613414e-02  -4.5224932851742283e-02  -3.9984761790985507e-02  -4.7543606895570217e-02  -4.2593410678081173e-02  5.7424491043313432e-03  -3.1987670951883398e-03  2.4526962786788061e-02  4.0293750038852029e-02  4.5800216642571598e-02  4.5517546331215318e-02  4.2718374783514153e-02  4.1845380248087101e-02  4.0461406750928450e-02  3.9275794273817471e-02  3.8217119416303201e-02  3.7294208998511144e-02  3.6304747077001383e-02  3.5298472621730893e-02  3.4127109171519537e-02  3.2703628101809719e-02  3.0972877491548038e-02  2.8846725520700386e-02  2.6264571190222265e-02  2.3193233343584068e-02  1.9615581470606713e-02  1.5525277849375126e-02  1.0962140126716388e-02  5.9591228239561592e-03  6.8862557216785726e-04  -4.9780494420423203e-03  -1.0207943732161195e-02  -1.6367394631183751e-02  -1.9854753350433078e-02  -2.6699131083032727e-02  -2.5908078739685821e-02  -3.2927138922511506e-02  -3.5435505801775131e-02  3.8560225803260864e-03  -5.0030548662792088e-03  3.0476019441481556e-02  5.8879768425205446e-02  6.9139831009467995e-02  7.1614869383188534e-02  6.8945128969822120e-02  6.8730015203890757e-02  6.8245510729010431e-02  6.7472092775396272e-02  6.7015721634216971e-02  6.6583734669172501e-02  6.6090417424069389e-02  6.5472062445934662e-02  6.4676160040440966e-02  6.3527796215220020e-02  6.1960158879725585e-02  5.9887129114925192e-02  5.7227760079109451e-02  5.3919981444493191e-02  4.9974354514488922e-02  4.5292563694699944e-02  3.9986201475241158e-02  3.3990709370315272e-02  2.7557595152638871e-02  2.0453341007196393e-02  1.3512416810435079e-02  5.5746669256886089e-03  -5.7123204704527910e-04  -9.1701202711985900e-03  -1.2881254846210293e-02  -2.1080611546936100e-02  -2.9203367619200036e-02  2.3246202116081311e-03  -6.5615184039100839e-03  3.3246473977582423e-02  7.5437246951038386e-02  9.2109900927253407e-02  9.7819412121773863e-02  9.5734756837151838e-02  9.5300923506355009e-02  9.5921078011593622e-02  9.5571720527001344e-02  9.5646299703404367e-02  9.5837421481328719e-02  9.5918221991333222e-02  9.5838688619432219e-02  9.5494991784847966e-02  9.4749674078703897e-02  9.3453455688903883e-02  9.1513092810834279e-02  8.8841871078611204e-02  8.5373767003170287e-02  8.1012638767262737e-02  7.5726957686536950e-02  6.9629107420405401e-02  6.2625441978162666e-02  5.4801098741753020e-02  4.6280623186952224e-02  3.7233485780569134e-02  2.7510022798221300e-02  1.8266393446557939e-02  7.6236389303530232e-03  -5.0079562336014991e-04  -1.1038289723016742e-02  -2.3783356277054465e-02  1.1424934477558639e-03  -6.9655515461064296e-03  3.1901112714177733e-02  8.7680139580877225e-02  1.1420456520036630e-01  1.2378986121281674e-01  1.2342816168102909e-01  1.2196986469318040e-01  1.2337149906913643e-01  1.2393657828178221e-01  1.2434188897738026e-01  1.2527522532772664e-01  1.2606129080971482e-01  1.2661198114441430e-01  1.2684448964964437e-01  1.2658734439453961e-01  1.2567018189548257e-01  1.2394778106305505e-01  1.2130410714202303e-01  1.1763406192171201e-01  1.1288495889771778e-01  1.0709078499900690e-01  1.0019759320048176e-01  9.1999612438398437e-02  8.2803848424314277e-02  7.2685977846396480e-02  6.1395153321010199e-02  4.9614944328458116e-02  3.7172238557094874e-02  2.4004251958640831e-02  1.1538506576941301e-02  -2.0356300025259921e-03  -1.9028270556210765e-02  3.7120187909218499e-04  -6.4364600083726487e-03  2.6305330635910392e-02  9.2188299942567942e-02  1.3312963458698443e-01  1.4856487825247217e-01  1.5117353573309394e-01  1.4905742869351662e-01  1.4984300743455595e-01  1.5180511400413477e-01  1.5280031437305339e-01  1.5426354619853766e-01  1.5605342163392355e-01  1.5749297820018912e-01  1.5846873117538479e-01  1.5885202726844860e-01  1.5845324017986745e-01  1.5709202004197464e-01  1.5462533570860987e-01  1.5096314298115535e-01  1.4601284758576730e-01  1.3969794706099245e-01  1.3177375146741352e-01  1.2241825494312550e-01  1.1198287236901527e-01  9.9929681925465322e-02  8.6341882580591042e-02  7.2295910368908617e-02  5.6543609573159376e-02  4.0219177785701964e-02  2.3755180046832265e-02  6.1869450892933558e-03  -1.4812334097081872e-02  -1.0473049590330973e-04  -4.1255085345323350e-03  1.7329294965710125e-02  8.5978245439986209e-02  1.4513171145465803e-01  1.7109531687938964e-01  1.7847486104213178e-01  1.7740317459041305e-01  1.7668050767388033e-01  1.7931436975463422e-01  1.8196385573132742e-01  1.8403528300320238e-01  1.8659164658002986e-01  1.8920944467038842e-01  1.9124997666619545e-01  1.9247536057589881e-01  1.9271524080187138e-01  1.9179425275291884e-01  1.8954792744269189e-01  1.8581958359891781e-01  1.8049409408255609e-01  1.7341660917433474e-01  1.6467109862596221e-01  1.5457798481176727e-01  1.4257314802841073e-01  1.2817866706687248e-01  1.1263482004276688e-01  9.6024601255756334e-02  7.6569311546618057e-02  5.6787928793510939e-02  3.6416399635841368e-02  1.3768122900199610e-02  -1.1158611784813996e-02  -4.4331691276883086e-04  -2.4173932904892064e-03  8.1405995768999793e-03  6.8494003019401895e-02  1.4372146427754884e-01  1.8706318165296631e-01  2.0225756984177257e-01  2.0471979253885919e-01  2.0333227197059897e-01  2.0485904413210215e-01  2.0918118574120070e-01  2.1326560803992303e-01  2.1683308258037437e-01  2.2043543741011121e-01  2.2371728729655072e-01  2.2612511303472727e-01  2.2732419040762927e-01  2.2709163