<?xml version="1.0"?>
<VTKFile type="UnstructuredGrid"  version="0.1"  >
<UnstructuredGrid>
<Piece  NumberOfPoints="1089" NumberOfCells="1024">
<Points>
<DataArray  type="Float64"  NumberOfComponents="3"  format="ascii">0 0 0  0.03125 0 0  0.0625 0 0  0.09375 0 0  0.125 0 0  0.15625 0 0  0.1875 0 0  0.21875 0 0  0.25 0 0  0.28125 0 0  0.3125 0 0  0.34375 0 0  0.375 0 0  0.40625 0 0  0.4375 0 0  0.46875 0 0  0.5 0 0  0.53125 0 0  0.5625 0 0  0.59375 0 0  0.625 0 0  0.65625 0 0  0.6875 0 0  0.71875 0 0  0.75 0 0  0.78125 0 0  0.8125 0 0  0.84375 0 0  0.875 0 0  0.90625 0 0  0.9375 0 0  0.96875 0 0  1 0 0  0 0.03125 0  0.03125 0.03125 0  0.0625 0.03125 0  0.09375 0.03125 0  0.125 0.03125 0  0.15625 0.03125 0  0.1875 0.03125 0  0.21875 0.03125 0  0.25 0.03125 0  0.28125 0.03125 0  0.3125 0.03125 0  0.34375 0.03125 0  0.375 0.03125 0  0.40625 0.03125 0  0.4375 0.03125 0  0.46875 0.03125 0  0.5 0.03125 0  0.53125 0.03125 0  0.5625 0.03125 0  0.59375 0.03125 0  0.625 0.03125 0  0.65625 0.03125 0  0.6875 0.03125 0  0.71875 0.03125 0  0.75 0.03125 0  0.78125 0.03125 0  0.8125 0.03125 0  0.84375 0.03125 0  0.875 0.03125 0  0.90625 0.03125 0  0.9375 0.03125 0  0.96875 0.03125 0  1 0.03125 0  0 0.0625 0  0.03125 0.0625 0  0.0625 0.0625 0  0.09375 0.0625 0  0.125 0.0625 0  0.15625 0.0625 0  0.1875 0.0625 0  0.21875 0.0625 0  0.25 0.0625 0  0.28125 0.0625 0  0.3125 0.0625 0  0.34375 0.0625 0  0.375 0.0625 0  0.40625 0.0625 0  0.4375 0.0625 0  0.46875 0.0625 0  0.5 0.0625 0  0.53125 0.0625 0  0.5625 0.0625 0  0.59375 0.0625 0  0.625 0.0625 0  0.65625 0.0625 0  0.6875 0.0625 0  0.71875 0.0625 0  0.75 0.0625 0  0.78125 0.0625 0  0.8125 0.0625 0  0.84375 0.0625 0  0.875 0.0625 0  0.90625 0.0625 0  0.9375 0.0625 0  0.96875 0.0625 0  1 0.0625 0  0 0.09375 0  0.03125 0.09375 0  0.0625 0.09375 0  0.09375 0.09375 0  0.125 0.09375 0  0.15625 0.09375 0  0.1875 0.09375 0  0.21875 0.09375 0  0.25 0.09375 0  0.28125 0.09375 0  0.3125 0.09375 0  0.34375 0.09375 0  0.375 0.09375 0  0.40625 0.09375 0  0.4375 0.09375 0  0.46875 0.09375 0  0.5 0.09375 0  0.53125 0.09375 0  0.5625 0.09375 0  0.59375 0.09375 0  0.625 0.09375 0  0.65625 0.09375 0  0.6875 0.09375 0  0.71875 0.09375 0  0.75 0.09375 0  0.78125 0.09375 0  0.8125 0.09375 0  0.84375 0.09375 0  0.875 0.09375 0  0.90625 0.09375 0  0.9375 0.09375 0  0.96875 0.09375 0  1 0.09375 0  0 0.125 0  0.03125 0.125 0  0.0625 0.125 0  0.09375 0.125 0  0.125 0.125 0  0.15625 0.125 0  0.1875 0.125 0  0.21875 0.125 0  0.25 0.125 0  0.28125 0.125 0  0.3125 0.125 0  0.34375 0.125 0  0.375 0.125 0  0.40625 0.125 0  0.4375 0.125 0  0.46875 0.125 0  0.5 0.125 0  0.53125 0.125 0  0.5625 0.125 0  0.59375 0.125 0  0.625 0.125 0  0.65625 0.125 0  0.6875 0.125 0  0.71875 0.125 0  0.75 0.125 0  0.78125 0.125 0  0.8125 0.125 0  0.84375 0.125 0  0.875 0.125 0  0.90625 0.125 0  0.9375 0.125 0  0.96875 0.125 0  1 0.125 0  0 0.15625 0  0.03125 0.15625 0  0.0625 0.15625 0  0.09375 0.15625 0  0.125 0.15625 0  0.15625 0.15625 0  0.1875 0.15625 0  0.21875 0.15625 0  0.25 0.15625 0  0.28125 0.15625 0  0.3125 0.15625 0  0.34375 0.15625 0  0.375 0.15625 0  0.40625 0.15625 0  0.4375 0.15625 0  0.46875 0.15625 0  0.5 0.15625 0  0.53125 0.15625 0  0.5625 0.15625 0  0.59375 0.15625 0  0.625 0.15625 0  0.65625 0.15625 0  0.6875 0.15625 0  0.71875 0.15625 0  0.75 0.15625 0  0.78125 0.15625 0  0.8125 0.15625 0  0.84375 0.15625 0  0.875 0.15625 0  0.90625 0.15625 0  0.9375 0.15625 0  0.96875 0.15625 0  1 0.15625 0  0 0.1875 0  0.03125 0.1875 0  0.0625 0.1875 0  0.09375 0.1875 0  0.125 0.1875 0  0.15625 0.1875 0  0.1875 0.1875 0  0.21875 0.1875 0  0.25 0.1875 0  0.28125 0.1875 0  0.3125 0.1875 0  0.34375 0.1875 0  0.375 0.1875 0  0.40625 0.1875 0  0.4375 0.1875 0  0.46875 0.1875 0  0.5 0.1875 0  0.53125 0.1875 0  0.5625 0.1875 0  0.59375 0.1875 0  0.625 0.1875 0  0.65625 0.1875 0  0.6875 0.1875 0  0.71875 0.1875 0  0.75 0.1875 0  0.78125 0.1875 0  0.8125 0.1875 0  0.84375 0.1875 0  0.875 0.1875 0  0.90625 0.1875 0  0.9375 0.1875 0  0.96875 0.1875 0  1 0.1875 0  0 0.21875 0  0.03125 0.21875 0  0.0625 0.21875 0  0.09375 0.21875 0  0.125 0.21875 0  0.15625 0.21875 0  0.1875 0.21875 0  0.21875 0.21875 0  0.25 0.21875 0  0.28125 0.21875 0  0.3125 0.21875 0  0.34375 0.21875 0  0.375 0.21875 0  0.40625 0.21875 0  0.4375 0.21875 0  0.46875 0.21875 0  0.5 0.21875 0  0.53125 0.21875 0  0.5625 0.21875 0  0.59375 0.21875 0  0.625 0.21875 0  0.65625 0.21875 0  0.6875 0.21875 0  0.71875 0.21875 0  0.75 0.21875 0  0.78125 0.21875 0  0.8125 0.21875 0  0.84375 0.21875 0  0.875 0.21875 0  0.90625 0.21875 0  0.9375 0.21875 0  0.96875 0.21875 0  1 0.21875 0  0 0.25 0  0.03125 0.25 0  0.0625 0.25 0  0.09375 0.25 0  0.125 0.25 0  0.15625 0.25 0  0.1875 0.25 0  0.21875 0.25 0  0.25 0.25 0  0.28125 0.25 0  0.3125 0.25 0  0.34375 0.25 0  0.375 0.25 0  0.40625 0.25 0  0.4375 0.25 0  0.46875 0.25 0  0.5 0.25 0  0.53125 0.25 0  0.5625 0.25 0  0.59375 0.25 0  0.625 0.25 0  0.65625 0.25 0  0.6875 0.25 0  0.71875 0.25 0  0.75 0.25 0  0.78125 0.25 0  0.8125 0.25 0  0.84375 0.25 0  0.875 0.25 0  0.90625 0.25 0  0.9375 0.25 0  0.96875 0.25 0  1 0.25 0  0 0.28125 0  0.03125 0.28125 0  0.0625 0.28125 0  0.09375 0.28125 0  0.125 0.28125 0  0.15625 0.28125 0  0.1875 0.28125 0  0.21875 0.28125 0  0.25 0.28125 0  0.28125 0.28125 0  0.3125 0.28125 0  0.34375 0.28125 0  0.375 0.28125 0  0.40625 0.28125 0  0.4375 0.28125 0  0.46875 0.28125 0  0.5 0.28125 0  0.53125 0.28125 0  0.5625 0.28125 0  0.59375 0.28125 0  0.625 0.28125 0  0.65625 0.28125 0  0.6875 0.28125 0  0.71875 0.28125 0  0.75 0.28125 0  0.78125 0.28125 0  0.8125 0.28125 0  0.84375 0.28125 0  0.875 0.28125 0  0.90625 0.28125 0  0.9375 0.28125 0  0.96875 0.28125 0  1 0.28125 0  0 0.3125 0  0.03125 0.3125 0  0.0625 0.3125 0  0.09375 0.3125 0  0.125 0.3125 0  0.15625 0.3125 0  0.1875 0.3125 0  0.21875 0.3125 0  0.25 0.3125 0  0.28125 0.3125 0  0.3125 0.3125 0  0.34375 0.3125 0  0.375 0.3125 0  0.40625 0.3125 0  0.4375 0.3125 0  0.46875 0.3125 0  0.5 0.3125 0  0.53125 0.3125 0  0.5625 0.3125 0  0.59375 0.3125 0  0.625 0.3125 0  0.65625 0.3125 0  0.6875 0.3125 0  0.71875 0.3125 0  0.75 0.3125 0  0.78125 0.3125 0  0.8125 0.3125 0  0.84375 0.3125 0  0.875 0.3125 0  0.90625 0.3125 0  0.9375 0.3125 0  0.96875 0.3125 0  1 0.3125 0  0 0.34375 0  0.03125 0.34375 0  0.0625 0.34375 0  0.09375 0.34375 0  0.125 0.34375 0  0.15625 0.34375 0  0.1875 0.34375 0  0.21875 0.34375 0  0.25 0.34375 0  0.28125 0.34375 0  0.3125 0.34375 0  0.34375 0.34375 0  0.375 0.34375 0  0.40625 0.34375 0  0.4375 0.34375 0  0.46875 0.34375 0  0.5 0.34375 0  0.53125 0.34375 0  0.5625 0.34375 0  0.59375 0.34375 0  0.625 0.34375 0  0.65625 0.34375 0  0.6875 0.34375 0  0.71875 0.34375 0  0.75 0.34375 0  0.78125 0.34375 0  0.8125 0.34375 0  0.84375 0.34375 0  0.875 0.34375 0  0.90625 0.34375 0  0.9375 0.34375 0  0.96875 0.34375 0  1 0.34375 0  0 0.375 0  0.03125 0.375 0  0.0625 0.375 0  0.09375 0.375 0  0.125 0.375 0  0.15625 0.375 0  0.1875 0.375 0  0.21875 0.375 0  0.25 0.375 0  0.28125 0.375 0  0.3125 0.375 0  0.34375 0.375 0  0.375 0.375 0  0.40625 0.375 0  0.4375 0.375 0  0.46875 0.375 0  0.5 0.375 0  0.53125 0.375 0  0.5625 0.375 0  0.59375 0.375 0  0.625 0.375 0  0.65625 0.375 0  0.6875 0.375 0  0.71875 0.375 0  0.75 0.375 0  0.78125 0.375 0  0.8125 0.375 0  0.84375 0.375 0  0.875 0.375 0  0.90625 0.375 0  0.9375 0.375 0  0.96875 0.375 0  1 0.375 0  0 0.40625 0  0.03125 0.40625 0  0.0625 0.40625 0  0.09375 0.40625 0  0.125 0.40625 0  0.15625 0.40625 0  0.1875 0.40625 0  0.21875 0.40625 0  0.25 0.40625 0  0.28125 0.40625 0  0.3125 0.40625 0  0.34375 0.40625 0  0.375 0.40625 0  0.40625 0.40625 0  0.4375 0.40625 0  0.46875 0.40625 0  0.5 0.40625 0  0.53125 0.40625 0  0.5625 0.40625 0  0.59375 0.40625 0  0.625 0.40625 0  0.65625 0.40625 0  0.6875 0.40625 0  0.71875 0.40625 0  0.75 0.40625 0  0.78125 0.40625 0  0.8125 0.40625 0  0.84375 0.40625 0  0.875 0.40625 0  0.90625 0.40625 0  0.9375 0.40625 0  0.96875 0.40625 0  1 0.40625 0  0 0.4375 0  0.03125 0.4375 0  0.0625 0.4375 0  0.09375 0.4375 0  0.125 0.4375 0  0.15625 0.4375 0  0.1875 0.4375 0  0.21875 0.4375 0  0.25 0.4375 0  0.28125 0.4375 0  0.3125 0.4375 0  0.34375 0.4375 0  0.375 0.4375 0  0.40625 0.4375 0  0.4375 0.4375 0  0.46875 0.4375 0  0.5 0.4375 0  0.53125 0.4375 0  0.5625 0.4375 0  0.59375 0.4375 0  0.625 0.4375 0  0.65625 0.4375 0  0.6875 0.4375 0  0.71875 0.4375 0  0.75 0.4375 0  0.78125 0.4375 0  0.8125 0.4375 0  0.84375 0.4375 0  0.875 0.4375 0  0.90625 0.4375 0  0.9375 0.4375 0  0.96875 0.4375 0  1 0.4375 0  0 0.46875 0  0.03125 0.46875 0  0.0625 0.46875 0  0.09375 0.46875 0  0.125 0.46875 0  0.15625 0.46875 0  0.1875 0.46875 0  0.21875 0.46875 0  0.25 0.46875 0  0.28125 0.46875 0  0.3125 0.46875 0  0.34375 0.46875 0  0.375 0.46875 0  0.40625 0.46875 0  0.4375 0.46875 0  0.46875 0.46875 0  0.5 0.46875 0  0.53125 0.46875 0  0.5625 0.46875 0  0.59375 0.46875 0  0.625 0.46875 0  0.65625 0.46875 0  0.6875 0.46875 0  0.71875 0.46875 0  0.75 0.46875 0  0.78125 0.46875 0  0.8125 0.46875 0  0.84375 0.46875 0  0.875 0.46875 0  0.90625 0.46875 0  0.9375 0.46875 0  0.96875 0.46875 0  1 0.46875 0  0 0.5 0  0.03125 0.5 0  0.0625 0.5 0  0.09375 0.5 0  0.125 0.5 0  0.15625 0.5 0  0.1875 0.5 0  0.21875 0.5 0  0.25 0.5 0  0.28125 0.5 0  0.3125 0.5 0  0.34375 0.5 0  0.375 0.5 0  0.40625 0.5 0  0.4375 0.5 0  0.46875 0.5 0  0.5 0.5 0  0.53125 0.5 0  0.5625 0.5 0  0.59375 0.5 0  0.625 0.5 0  0.65625 0.5 0  0.6875 0.5 0  0.71875 0.5 0  0.75 0.5 0  0.78125 0.5 0  0.8125 0.5 0  0.84375 0.5 0  0.875 0.5 0  0.90625 0.5 0  0.9375 0.5 0  0.96875 0.5 0  1 0.5 0  0 0.53125 0  0.03125 0.53125 0  0.0625 0.53125 0  0.09375 0.53125 0  0.125 0.53125 0  0.15625 0.53125 0  0.1875 0.53125 0  0.21875 0.53125 0  0.25 0.53125 0  0.28125 0.53125 0  0.3125 0.53125 0  0.34375 0.53125 0  0.375 0.53125 0  0.40625 0.53125 0  0.4375 0.53125 0  0.46875 0.53125 0  0.5 0.53125 0  0.53125 0.53125 0  0.5625 0.53125 0  0.59375 0.53125 0  0.625 0.53125 0  0.65625 0.53125 0  0.6875 0.53125 0  0.71875 0.53125 0  0.75 0.53125 0  0.78125 0.531
[...]
<PointData  Scalars="v_sol"> 
<DataArray  type="Float64"  Name="v_sol"  format="ascii">6.0502639596244375e-06  4.0221279110762899e-04  6.1165340998924587e-04  4.0880528275176502e-04  1.6131443932165248e-04  9.2996640876503954e-05  -5.1912257532117302e-05  1.9965219184651283e-04  3.7800520322402478e-05  -1.6312631448510272e-03  -4.2107227509726817e-03  -6.4145996119757470e-03  -7.1411416907015794e-03  -6.2287505451300695e-03  -4.2685693697401108e-03  -2.1379369258812887e-03  2.5022293629659861e-05  2.5296134651049463e-03  4.3297504572950944e-03  5.7354251357239214e-03  6.5923642044399032e-03  6.6894239385486493e-03  5.8893491156520802e-03  4.2326423631498904e-03  2.4778845588682057e-03  5.9045004910233197e-04  -1.6256479617582495e-03  -2.8899118150061366e-03  -2.1824610149066863e-03  -1.3489548165797783e-03  -6.3427070358826332e-04  -2.5280310693191841e-04  1.9119451686373059e-05  2.1870403030765779e-04  -2.1340350335497600e-03  -3.3395563537071400e-03  -2.1147385955461503e-03  -6.6585229915913527e-04  -4.0217457424351986e-04  -4.3507536829939493e-04  -4.8160004876196625e-04  1.2749118938007477e-03  6.8519964389139373e-03  1.6737473512479329e-02  2.6911643821172487e-02  3.3003883995535763e-02  3.3464443944012698e-02  2.8480346172596274e-02  1.9037033054857294e-02  6.4315994042564630e-03  -7.5878376237978598e-03  -2.1583477281181207e-02  -3.4428679595214347e-02  -4.2904057323760993e-02  -4.3842814742853731e-02  -3.5735747280975116e-02  -2.1742017855994014e-02  -7.8836611739149694e-03  4.4473787163059426e-03  1.3135922369628454e-02  1.4584741296170295e-02  1.0658415964485995e-02  6.1434733494155954e-03  3.0259922880501323e-03  1.1059387450516490e-03  -2.4644366600775589e-04  3.3718896304385622e-05  -8.3545845138309240e-03  -1.0409048469660370e-02  -5.6318910994967728e-03  -3.2986400347865836e-04  2.0773290625949979e-03  5.3245548507863810e-03  1.6812318980741935e-02  3.9822369339623256e-02  6.8380779783420942e-02  9.0174846906502529e-02  9.8202717399135428e-02  9.2454338189774304e-02  7.6828465321230513e-02  5.5605944528141334e-02  3.1612281778415997e-02  6.1290021165917715e-03  -2.0872560514176346e-02  -4.9487112489676847e-02  -7.8064954204508763e-02  -1.0305310740187194e-01  -1.1746052466221855e-01  -1.1352241869601835e-01  -8.8766978698183882e-02  -5.2557575254009781e-02  -2.0792925443221314e-02  2.5321339822412096e-03  1.9529437069492318e-02  2.5112200715979215e-02  1.9771449929598308e-02  1.2431395944902527e-02  6.4107244834049077e-03  1.4879123052499775e-04  -7.5696057521423897e-04  -1.7749821234411028e-02  -1.6842772596563176e-02  -4.1735239562398470e-03  6.1223250727815556e-03  1.6165159673868477e-02  4.0886731972730267e-02  8.3886913692164583e-02  1.2827037202248207e-01  1.5532395586957742e-01  1.5939549930752844e-01  1.4554160174758649e-01  1.2183993282744324e-01  9.4198788619206997e-02  6.5427242178703396e-02  3.6215582998927645e-02  6.2800298646345752e-03  -2.4839831495631761e-02  -5.7856087618729526e-02  -9.3726462622898257e-02  -1.3148097088016641e-01  -1.6657867161225043e-01  -1.8835163062147339e-01  -1.8258837525846919e-01  -1.4249664569690046e-01  -8.2077826873912005e-02  -3.0603808169790418e-02  4.0322666067226989e-04  1.9324532340908900e-02  2.5704941101194222e-02  2.0791731987184744e-02  1.3455680771636905e-02  1.0213204171330543e-03  -2.9034137129327355e-03  -2.9446618325547590e-02  -1.7231138734384404e-02  6.2412111878511947e-03  2.6297273445269692e-02  6.3590145694944561e-02  1.2394881198957224e-01  1.8120813501357802e-01  2.1077822378688374e-01  2.0962842159023623e-01  1.8848329255529736e-01  1.5862658723708156e-01  1.2650371490656814e-01  9.4642176053664942e-02  6.3734019812669865e-02  3.3732240728185446e-02  4.1779489928519707e-03  -2.5794467230606900e-02  -5.7153786562715816e-02  -9.0656383464514309e-02  -1.2767835779116563e-01  -1.6919742065309371e-01  -2.1264706840328718e-01  -2.4559489654436897e-01  -2.4514124481610128e-01  -1.9439972885196305e-01  -1.0856495088490285e-01  -3.4196942407406117e-02  3.4493464601674387e-03  2.0288146907284151e-02  2.4374793257867958e-02  1.8635008067416910e-02  1.6304276572568228e-03  -7.6960697946964690e-03  -3.8323120382534943e-02  -6.3962400065904037e-03  2.9483320640270372e-02  7.6855416513032154e-02  1.5115283118299519e-01  2.2155040138035975e-01  2.5541388771337686e-01  2.5069271019537193e-01  2.2376007238774340e-01  1.8935071347204263e-01  1.5468935379347978e-01  1.2203304976456243e-01  9.1394618324641311e-02  6.1913601553784697e-02  3.2611004245251124e-02  2.8139753606536023e-03  -2.7671704457465446e-02  -5.8681366394411315e-02  -9.0157272577647926e-02  -1.2212611203829433e-01  -1.5590540955712306e-01  -1.9520219451438969e-01  -2.4287363049503527e-01  -2.8810745632808404e-01  -2.9745492668559725e-01  -2.3823000237468914e-01  -1.2569609028931575e-01  -2.9297867869052575e-02  1.0703931378583373e-02  2.3304001851677220e-02  2.1267458643209662e-02  1.9621609060468826e-03  -1.4719071505802955e-02  -3.6733417563951529e-02  1.7071535347075058e-02  7.6036423485647570e-02  1.6021715208179743e-01  2.4607426309459585e-01  2.9016422478624793e-01  2.8627291131798782e-01  2.5606723842491996e-01  2.1914301464271879e-01  1.8420094198521519e-01  1.5286620603159648e-01  1.2358661088599765e-01  9.4436166756526038e-02  6.4520399513899818e-02  3.3876976455540664e-02  2.7708812317124680e-03  -2.8762913790746959e-02  -6.0936103103613422e-02  -9.3668258174634103e-02  -1.2636060412627659e-01  -1.5769348774315381e-01  -1.8729572503879011e-01  -2.2046502233135803e-01  -2.6775104873502775e-01  -3.2310326235691256e-01  -3.3994149230237580e-01  -2.6586164926868772e-01  -1.2266689552320849e-01  -1.2512655477677380e-02  1.9325557079894490e-02  2.3473256240613808e-02  2.0166238225840963e-03  -1.9293237216939124e-02  -2.0962449316579083e-02  5.7302080857335604e-02  1.4842023282497815e-01  2.5060808080360819e-01  3.1400504045958827e-01  3.1859920990932283e-01  2.8837019300056282e-01  2.5020210460842707e-01  2.1572637256945454e-01  1.8590061868661933e-01  1.5727761191362050e-01  1.2740002281669235e-01  9.6392663621381894e-02  6.5182194215782224e-02  3.4109792012036441e-02  2.9596182191314042e-03  -2.8542253161890338e-02  -6.0507136728242115e-02  -9.3139870741074590e-02  -1.2670891869390949e-01  -1.6103503892858820e-01  -1.9387507334876314e-01  -2.2154039169297760e-01  -2.4872492250051595e-01  -2.9483327887774502e-01  -3.5853705197038360e-01  -3.7318152767702306e-01  -2.6746607740673684e-01  -9.0918604336900341e-02  1.1841265588924762e-02  2.3174225609009891e-02  4.2957725105195093e-03  -1.7936144405963202e-02  1.0936296712162938e-02  1.1614762327476953e-01  2.3044671797967109e-01  3.2139270530811298e-01  3.4667183532339457e-01  3.2167122497348893e-01  2.8282420888552579e-01  2.4818209640068711e-01  2.1916695825358648e-01  1.9064592498229499e-01  1.5981765163945275e-01  1.2807698293057918e-01  9.6789145884793953e-02  6.5832016150319889e-02  3.4742107577718680e-02  3.3585041204135719e-03  -2.8322601141283307e-02  -6.0311816737676972e-02  -9.2514858453733778e-02  -1.2491267040102365e-01  -1.5807448670732338e-01  -1.9317738442427654e-01  -2.2828407133001496e-01  -2.5564532867293510e-01  -2.7869152893794685e-01  -3.2762870457626969e-01  -3.9838852821190018e-01  -3.9031041561140578e-01  -2.2857830349142641e-01  -3.1867440281955872e-02  2.6860773901951619e-02  4.2268737272652930e-03  -9.9627375714463028e-03  5.9127505388705738e-02  1.8526684257500894e-01  3.0309729006620267e-01  3.6399270471060480e-01  3.5549779230257234e-01  3.1734041474728047e-01  2.8116622366855326e-01  2.5200422087912000e-01  2.2375949745340201e-01  1.9247002961459481e-01  1.6042815178425945e-01  1.2936533963263169e-01  9.8531764528945201e-02  6.7380968572441510e-02  3.5942655247128683e-02  4.2626550566545246e-03  -2.7684898167396780e-02  -5.9929190206593243e-02  -9.2501831247984029e-02  -1.2520327603749939e-01  -1.5748700911937116e-01  -1.8971927284011300e-01  -2.2486305747423049e-01  -2.6182864926304539e-01  -2.8801637357826543e-01  -3.0944622518218062e-01  -3.6983322611302172e-01  -4.3942466392446189e-01  -3.7021827465599227e-01  -1.3632406727641710e-01  2.5904684673576300e-02  3.8452859000499859e-03  3.9421485389538298e-03  1.1840881895696344e-01  2.5266149851384156e-01  3.5737421305209294e-01  3.8455254136318401e-01  3.5493104165563477e-01  3.1542965084059221e-01  2.8462236390069234e-01  2.5680267921828542e-01  2.2581570869203710e-01  1.9346562120297320e-01  1.6247753649321378e-01  1.3164782755844032e-01  1.0029128480785102e-01  6.8747793645524413e-02  3.7098795061298685e-02  5.3164081053202351e-03  -2.6665469699066774e-02  -5.8899053865862708e-02  -9.1421671817305539e-02  -1.2441131512604843e-01  -1.5784050844144640e-01  -1.9045891804031514e-01  -2.2202058981928452e-01  -2.5774267875272983e-01  -2.9574024045930514e-01  -3.1762736436618511e-01  -3.4418810338198896e-01  -4.2564555657829861e-01  -4.6091738276038613e-01  -2.7615017800742481e-01  -1.0895516462167160e-02  1.8019380438565828e-02  2.0881969790720052e-02  1.8053448504626518e-01  3.1021238566545284e-01  3.9410391889406965e-01  3.9312627274665390e-01  3.5390792766820167e-01  3.1786118622885068e-01  2.8979249334861934e-01  2.5985354569820257e-01  2.2724550360850643e-01  1.9583448152926747e-01  1.6501454178825237e-01  1.3345334979395862e-01  1.0178810847066778e-01  7.0169208569802771e-02  3.8465619908862242e-02  6.6007148590699902e-03  -2.5485064266423170e-02  -5.7800301379371116e-02  -9.0332917632139673e-02  -1.2300529533925196e-01  -1.5620108275875871e-01  -1.9039238002649189e-01  -2.2339702762389313e-01  -2.5479767970759670e-01  -2.9286625886153772e-01  -3.2915255525241477e-01  -3.4453466207098343e-01  -3.9401582248049666e-01  -4.8714137551780345e-01  -4.0743470075040988e-01  -9.1420063466171944e-02  3.9144916785078726e-02  3.6788134800248513e-02  2.3796699779431155e-01  3.5527579610185678e-01  4.1816332152807273e-01  3.9722159830671749e-01  3.5547242435148718e-01  3.2276971819309580e-01  2.9426506120473828e-01  2.6204457695848532e-01  2.2961605060337806e-01  1.9862028658248287e-01  1.6703751644433973e-01  1.3516785540300166e-01  1.0355427861231152e-01  7.1889540785623082e-02  4.0086724533556786e-02  8.1190608617967841e-03  -2.4024350974612883e-02  -5.6388196490985573e-02  -8.9055274792865236e-02  -1.2201393034994425e-01  -1.5491267091590857e-01  -1.8838180644054120e-01  -2.2341844075402470e-01  -2.5626999185524418e-01  -2.8885985758546201e-01  -3.3079336760578759e-01  -3.5803338523188327e-01  -3.7775512614183215e-01  -4.7167157001067428e-01  -4.9864300622683116e-01  -2.0170571225550513e-01  5.2523623891990404e-02  4.8319460498719852e-02  2.8563087172224227e-01  3.8862799540231691e-01  4.3417768047295419e-01  4.0062968222139422e-01  3.5928378174996611e-01  3.2811514723351526e-01  2.9781915262966724e-01  2.6448287812967020e-01  2.3247710339222682e-01  2.0104002826974132e-01  1.6893354511601621e-01  1.3712589575804524e-01  1.0545061903838183e-01  7.3635313608054045e-02  4.1753802665444407e-02  9.7840300252614830e-03  -2.2350816747474411e-02  -5.4708311582039898e-02  -8.7301619769535099e-02  -1.2031034702038600e-01  -1.5380832854669593e-01  -1.8704816809995614e-01  -2.2129356060414607e-01  -2.5715592292822059e-01  -2.8917770628558664e-01  -3.2675270587040706e-01  -3.6797056040285342e-01  -3.8166301775063938e-01  -4.4524582805405483e-01  -5.4466648674232465e-01  -3.2054857620618094e-01  5.3749397812689018e-02  5.3653639435424311e-02  3.2088234081610473e-01  4.1210708860270762e-01  4.4517476831384833e-01  4.0447316110419113e-01  3.6403435657530964e-01  3.3292334888053704e-01  3.0092665823785675e-01  2.6720582740811816e-01  2.3520445910910959e-01  2.0318928315414692e-01  1.7092236549540357e-01  1.3911338081115432e-01  1.0727616005241265e-01  7.5410398570475434e-02  4.3575717327516604e-02  1.1637461472969192e-02  -2.0457266476350155e-02  -5.2773287488525458e-02  -8.5393747150939142e-02  -1.1824968573659143e-01  -1.5168763926393494e-01  -1.8577536240452053e-01  -2.1946948412390976e-01  -2.5541154186310266e-01  -2.9099757622731415e-01  -3.2409612025755735e-01  -3.6968499212698375e-01  -3.9475232981492242e-01  -4.2725253819538289e-01  -5.5662010356932912e-01  -4.2878527232320335e-01  4.1046702708670252e-02  5.2441340880107948e-02  3.4259133399166614e-01  4.2743923171157366e-01  4.5264178737388783e-01  4.0867645568219957e-01  3.6861574077461429e-01  3.3697029077238688e-01  3.0377044596520614e-01  2.6987799519747890e-01  2.3760438133203529e-01  2.0519798985779356e-01  1.7286879232785990e-01  1.4097432704034094e-01  1.0906063449921274e-01  7.7260179793943701e-02  4.5489818986582310e-02  1.3636590865193076e-02  -1.8343895303175446e-02  -5.0533623588371705e-02  -8.3033003242120262e-02  -1.1598498242975191e-01  -1.4919361527723510e-01  -1.8332974960354892e-01  -2.1792015528037179e-01  -2.5271454037774022e-01  -2.9075810655692591e-01  -3.2439338888766439e-01  -3.6649269480900670e-01  -4.0658521302992484e-01  -4.2203454362410364e-01  -5.4921150319847134e-01  -5.1717200466522395e-01  1.7608706489157969e-02  4.5339419389877622e-02  3.5033075692091076e-01  4.3569542818945867e-01  4.5730220869847082e-01  4.1272068294538755e-01  3.7249321485923637e-01  3.4018057293575277e-01  3.0631790802414444e-01  2.7222478693287117e-01  2.3965721235826684e-01  2.0701529316247491e-01  1.7463616238919030e-01  1.4267466616069707e-01  1.1079699463120625e-01  7.9093528404882818e-02  4.7444787482732988e-02  1.5765661004553361e-02  -1.6012720972771486e-02  -4.8014950855333020e-02  -8.0302369109425120e-02  -1.1303732198896327e-01  -1.4638839711499518e-01  -1.8011962401419501e-01  -2.1528373606088230e-01  -2.5019761984287731e-01  -2.8789084388644537e-01  -3.2528981990175121e-01  -3.6245893467162793e-01  -4.1244309849284955e-01  -4.2595274291750418e-01  -5.3321484772876260e-01  -5.8435461883808870e-01  -1.2115856827553862e-02  3.2346486825104180e-02  3.4452287495827272e-01  4.3741036812922512e-01  4.5918841424176376e-01  4.1640840118745820e-01  3.7534802860619465e-01  3.4258874872715966e-01  3.0841520829962216e-01  2.7413653430847212e-01  2.4130400475400390e-01  2.0856108817090743e-01  1.7613490209717533e-01  1.4418272292309339e-01  1.1240561722364097e-01  8.0857988705375944e-02  4.9425082202535095e-02  1.8012520175337290e-02  -1.3479125782304360e-02  -4.5154969306280518e-02  -7.7189490311505099e-02  -1.0959722418252843e-01  -1.4272144750595744e-01  -1.7647561386559507e-01  -2.1120866034685040e-01  -2.4718820953005777e-01  -2.8355589694123473e-01  -3.2417821240916095e-01  -3.5927988715450349e-01  -4.1196243015864081e-01  -4.3349726777541081e-01  -5.1445735366196244e-01  -6.3294522103214768e-01  -4.4369476343033849e-02  1.5444965114762010e-02  3.2455368257761075e-01  4.3323126744775198e-01  4.5749564242292701e-01  4.2000412101103057e-01  3.7700685103579018e-01  3.4426083310485411e-01  3.0994170767135387e-01  2.7557803089674648e-01  2.4247136623801241e-01  2.0975170285519854e-01  1.7729826999822668e-01  1.4541479499023335e-01  1.1382131729586203e-01  8.2497862394422500e-02  5.1377202045427582e-02  2.0333176720096366e-02  -1.0753959809885855e-02  -4.1995598009756059e-02  -7.3560411595193761e-02  -1.0563032715249834e-01  -1.3825584476903516e-01  -1.7192397422128716e-01  -2.0615476336724789e-01  -2.4258477288464025e-01  -2.7852228425983022e-01  -3.1999194569668166e-01  -3.5637498306173404e-01  -4.0659997490481425e-01  -4.4022049968362148e-01  -4.9537247624607222e-01  -6.6627489016968833e-01  -7.7087210882793633e-02  -1.4702578443370501e-03  2.8970356052095375e-01  4.2238956040316167e-01  4.5197864674090688e-01  4.2295799599069134e-01  3.7819704465687665e-01  3.4486581931673099e-01  3.1101932139202615e-01  2.7643032963070896e-01  2.4316412065716039e-01  2.1045483135199755e-01  1.7809036964257466e-01  1.4628355328435838e-01  1.1495803544431912e-01  8.3959044264491037e-02  5.3245313173274085e-02  2.2686862923442398e-02  -7.8424234058363206e-03  -3.8515093957580425e-02  -6.9505938725388960e-02  -1.0093807980595673e-01  -1.3307053657213655e-01  -1.6618425226679956e-01  -2.0012287913581922e-01  -2.3614006288745848e-01  -2.7235276872285308e-01  -3.1313058085316603e-01  -3.5199018387979814e-01  -3.9816568226967769e-01  -4.4313078608012080e-01  -4.7665908064288620e-01  -6.8720134463777272e-01  -1.0939917327237599e-01  -1.4669085813964641e-02  2.4077438014240238e-01  4.0251290608526008e-01  4.4274154282916700e-01  4.2414088536080469e-01  3.7992441107133496e-01  3.4431716390447037e-01  3.1156931677319644e-01  2.7678300406744860e-01  2.4328145171617738e-01  2.1060994731520122e-01  1.7837100506197839e-01  1.4673125518826227e-01  1.1569839819511600e-01  8.5145635781459450e-02  5.4954887894806438e-02  2.5017253189829489e-02  -4.8273979510966517e-03  -3.4758150317516653e-02  -6.4945478727915770e-02  -9.5563104687326553e-02  -1.2700913614175907e-01  -1.5931307430132241e-01  -1.9270636620815915e-01  -2.2811573425443102e-01  -2.6414910537859443e-01  -3.0433635049130925e-01  -3.4446252151050433e-01  -3.8793564893103649e-01  -4.4051954364301399e-01  -4.5824597239886189e-01  -6.9788003205301541e-01  -1.4094256935884455e-01  -2.2281783533570139e-02  1.8185155343100046e-01  3.6954305297681794e-01  4.2939727137794165e-01  4.2220758091489002e-01  3.8251066415695734e-01  3.4341065618781502e-01  3.1102779358286686e-01  2.7683983234991938e-01  2.4275122153717080e-01  2.1010928648903318e-01  1.7804169082195340e-01  1.4662718897405100e-01  1.1595791409998683e-01  8.5935417340848294e-02  5.6418211378105619e-02  2.7253986892553667e-02  -1.7172478751520078e-03  -3.0694298111306317e-02  -5.9869754817142011e-02  -8.9549816252855949e-02  -1.2000571826615164e-01  -1.5118427344645102e-01  -1.8382685698681037e-01  -2.1836735804310098e-01  -2.5362394687482165e-01  -2.9353471795252228e-01  -3.3331961974897800e-01  -3.7582926932665806e-01  -4.3214979935029985e-01  -4.3924411498657601e-01  -7.0029223488420145e-01  -1.7106680764981980e-01  -2.2814630591191900e-02  1.1909836468540430e-01  3.2020311310371524e-01  4.0925339350822698e-01  4.1649459319799170e-01  3.8482527146102291e-01  3.4363233745921157e-01  3.0919112583520969e-01  2.7620391933576754e-01  2.4182392199918196e-01  2.0873366274636784e-01  1.7691662296005439e-01  1.4583969729099933e-01  1.1561154591520481e-01  8.6215155223060266e-02  5.7503558991787121e-02  2.9294957457089637e-02  1.3881911483827993e-03  -2.6437551791386227e-02  -5.4428293535203696e-02  -8.2893701629563082e-02  -1.1186534836195942e-01  -1.4181113709489029e-01  -1.7350994486090346e-01  -2.0652059960099717e-01  -2.4083568860248181e-01  -2.8028836527798046e-01  -3.1861341724011877e-01  -3.6105042085022820e-01  -4.1867483413606527e-01  -4.1802612592705163e-01  -6.9645976137309806e-01  -1.9881385348306405e-01  -1.8637534774763636e-02  6.2705209585232569e-02  2.5338844225081347e-01  3.7693753308058359e-01  4.0550427071423983e-01  3.8489541203168193e-01  3.4550204876881863e-01  3.0727054095517053e-01  2.7397490254305790e-01  2.4036223973809590e-01  2.0669484413622044e-01  1.7468247294693892e-01  1.4405189135338212e-01  1.1445251480695257e-01  8.5839756024590694e-02  5.8094221890379279e-02  3.1023565602456699e-02  4.3946066669517479e-03  -2.2049053370381669e-02  -4.8554208079147725e-02  -7.5329029308947887e-02  -1.0270406948274324e-01  -1.3148109543416234e-01  -1.6137993493073249e-01  -1.9235374199597732e-01  -2.2598969020550591e-01  -2.6409154941881890e-01  -3.0022008878620648e-01  -3.4307481598956907e-01  -4.0050561363909404e-01  -3.9286443458668041e-01  -6.8806502110093493e-01  -2.2358671875492814e-01  -1.0543399926559876e-02  1.9252203028862960e-02  1.7583000609909655e-01  3.2557718410232789e-01  3.8603225434865923e-01  3.8065130601198305e-01  3.4729767435878189e-01  3.0688794472135039e-01  2.7041924218327673e-01  2.3708607572849480e-01  2.0388523788573934e-01  1.7157816018940916e-01  1.4107862268983859e-01  1.1218380043184729e-01  8.4572914436371702e-02  5.8032969100433943e-02  3.2343670449666788e-02  7.2460111914847214e-03  -1.7505634837236120e-02  -4.2195033059544446e-02  -6.7261460653441324e-02  -9.3036718420629591e-02  -1.19