<?xml version="1.0"?>
<VTKFile type="UnstructuredGrid"  version="0.1"  >
<UnstructuredGrid>
<Piece  NumberOfPoints="1089" NumberOfCells="1024">
<Points>
<DataArray  type="Float64"  NumberOfComponents="3"  format="ascii">0 0 0  0.03125 0 0  0.0625 0 0  0.09375 0 0  0.125 0 0  0.15625 0 0  0.1875 0 0  0.21875 0 0  0.25 0 0  0.28125 0 0  0.3125 0 0  0.34375 0 0  0.375 0 0  0.40625 0 0  0.4375 0 0  0.46875 0 0  0.5 0 0  0.53125 0 0  0.5625 0 0  0.59375 0 0  0.625 0 0  0.65625 0 0  0.6875 0 0  0.71875 0 0  0.75 0 0  0.78125 0 0  0.8125 0 0  0.84375 0 0  0.875 0 0  0.90625 0 0  0.9375 0 0  0.96875 0 0  1 0 0  0 0.03125 0  0.03125 0.03125 0  0.0625 0.03125 0  0.09375 0.03125 0  0.125 0.03125 0  0.15625 0.03125 0  0.1875 0.03125 0  0.21875 0.03125 0  0.25 0.03125 0  0.28125 0.03125 0  0.3125 0.03125 0  0.34375 0.03125 0  0.375 0.03125 0  0.40625 0.03125 0  0.4375 0.03125 0  0.46875 0.03125 0  0.5 0.03125 0  0.53125 0.03125 0  0.5625 0.03125 0  0.59375 0.03125 0  0.625 0.03125 0  0.65625 0.03125 0  0.6875 0.03125 0  0.71875 0.03125 0  0.75 0.03125 0  0.78125 0.03125 0  0.8125 0.03125 0  0.84375 0.03125 0  0.875 0.03125 0  0.90625 0.03125 0  0.9375 0.03125 0  0.96875 0.03125 0  1 0.03125 0  0 0.0625 0  0.03125 0.0625 0  0.0625 0.0625 0  0.09375 0.0625 0  0.125 0.0625 0  0.15625 0.0625 0  0.1875 0.0625 0  0.21875 0.0625 0  0.25 0.0625 0  0.28125 0.0625 0  0.3125 0.0625 0  0.34375 0.0625 0  0.375 0.0625 0  0.40625 0.0625 0  0.4375 0.0625 0  0.46875 0.0625 0  0.5 0.0625 0  0.53125 0.0625 0  0.5625 0.0625 0  0.59375 0.0625 0  0.625 0.0625 0  0.65625 0.0625 0  0.6875 0.0625 0  0.71875 0.0625 0  0.75 0.0625 0  0.78125 0.0625 0  0.8125 0.0625 0  0.84375 0.0625 0  0.875 0.0625 0  0.90625 0.0625 0  0.9375 0.0625 0  0.96875 0.0625 0  1 0.0625 0  0 0.09375 0  0.03125 0.09375 0  0.0625 0.09375 0  0.09375 0.09375 0  0.125 0.09375 0  0.15625 0.09375 0  0.1875 0.09375 0  0.21875 0.09375 0  0.25 0.09375 0  0.28125 0.09375 0  0.3125 0.09375 0  0.34375 0.09375 0  0.375 0.09375 0  0.40625 0.09375 0  0.4375 0.09375 0  0.46875 0.09375 0  0.5 0.09375 0  0.53125 0.09375 0  0.5625 0.09375 0  0.59375 0.09375 0  0.625 0.09375 0  0.65625 0.09375 0  0.6875 0.09375 0  0.71875 0.09375 0  0.75 0.09375 0  0.78125 0.09375 0  0.8125 0.09375 0  0.84375 0.09375 0  0.875 0.09375 0  0.90625 0.09375 0  0.9375 0.09375 0  0.96875 0.09375 0  1 0.09375 0  0 0.125 0  0.03125 0.125 0  0.0625 0.125 0  0.09375 0.125 0  0.125 0.125 0  0.15625 0.125 0  0.1875 0.125 0  0.21875 0.125 0  0.25 0.125 0  0.28125 0.125 0  0.3125 0.125 0  0.34375 0.125 0  0.375 0.125 0  0.40625 0.125 0  0.4375 0.125 0  0.46875 0.125 0  0.5 0.125 0  0.53125 0.125 0  0.5625 0.125 0  0.59375 0.125 0  0.625 0.125 0  0.65625 0.125 0  0.6875 0.125 0  0.71875 0.125 0  0.75 0.125 0  0.78125 0.125 0  0.8125 0.125 0  0.84375 0.125 0  0.875 0.125 0  0.90625 0.125 0  0.9375 0.125 0  0.96875 0.125 0  1 0.125 0  0 0.15625 0  0.03125 0.15625 0  0.0625 0.15625 0  0.09375 0.15625 0  0.125 0.15625 0  0.15625 0.15625 0  0.1875 0.15625 0  0.21875 0.15625 0  0.25 0.15625 0  0.28125 0.15625 0  0.3125 0.15625 0  0.34375 0.15625 0  0.375 0.15625 0  0.40625 0.15625 0  0.4375 0.15625 0  0.46875 0.15625 0  0.5 0.15625 0  0.53125 0.15625 0  0.5625 0.15625 0  0.59375 0.15625 0  0.625 0.15625 0  0.65625 0.15625 0  0.6875 0.15625 0  0.71875 0.15625 0  0.75 0.15625 0  0.78125 0.15625 0  0.8125 0.15625 0  0.84375 0.15625 0  0.875 0.15625 0  0.90625 0.15625 0  0.9375 0.15625 0  0.96875 0.15625 0  1 0.15625 0  0 0.1875 0  0.03125 0.1875 0  0.0625 0.1875 0  0.09375 0.1875 0  0.125 0.1875 0  0.15625 0.1875 0  0.1875 0.1875 0  0.21875 0.1875 0  0.25 0.1875 0  0.28125 0.1875 0  0.3125 0.1875 0  0.34375 0.1875 0  0.375 0.1875 0  0.40625 0.1875 0  0.4375 0.1875 0  0.46875 0.1875 0  0.5 0.1875 0  0.53125 0.1875 0  0.5625 0.1875 0  0.59375 0.1875 0  0.625 0.1875 0  0.65625 0.1875 0  0.6875 0.1875 0  0.71875 0.1875 0  0.75 0.1875 0  0.78125 0.1875 0  0.8125 0.1875 0  0.84375 0.1875 0  0.875 0.1875 0  0.90625 0.1875 0  0.9375 0.1875 0  0.96875 0.1875 0  1 0.1875 0  0 0.21875 0  0.03125 0.21875 0  0.0625 0.21875 0  0.09375 0.21875 0  0.125 0.21875 0  0.15625 0.21875 0  0.1875 0.21875 0  0.21875 0.21875 0  0.25 0.21875 0  0.28125 0.21875 0  0.3125 0.21875 0  0.34375 0.21875 0  0.375 0.21875 0  0.40625 0.21875 0  0.4375 0.21875 0  0.46875 0.21875 0  0.5 0.21875 0  0.53125 0.21875 0  0.5625 0.21875 0  0.59375 0.21875 0  0.625 0.21875 0  0.65625 0.21875 0  0.6875 0.21875 0  0.71875 0.21875 0  0.75 0.21875 0  0.78125 0.21875 0  0.8125 0.21875 0  0.84375 0.21875 0  0.875 0.21875 0  0.90625 0.21875 0  0.9375 0.21875 0  0.96875 0.21875 0  1 0.21875 0  0 0.25 0  0.03125 0.25 0  0.0625 0.25 0  0.09375 0.25 0  0.125 0.25 0  0.15625 0.25 0  0.1875 0.25 0  0.21875 0.25 0  0.25 0.25 0  0.28125 0.25 0  0.3125 0.25 0  0.34375 0.25 0  0.375 0.25 0  0.40625 0.25 0  0.4375 0.25 0  0.46875 0.25 0  0.5 0.25 0  0.53125 0.25 0  0.5625 0.25 0  0.59375 0.25 0  0.625 0.25 0  0.65625 0.25 0  0.6875 0.25 0  0.71875 0.25 0  0.75 0.25 0  0.78125 0.25 0  0.8125 0.25 0  0.84375 0.25 0  0.875 0.25 0  0.90625 0.25 0  0.9375 0.25 0  0.96875 0.25 0  1 0.25 0  0 0.28125 0  0.03125 0.28125 0  0.0625 0.28125 0  0.09375 0.28125 0  0.125 0.28125 0  0.15625 0.28125 0  0.1875 0.28125 0  0.21875 0.28125 0  0.25 0.28125 0  0.28125 0.28125 0  0.3125 0.28125 0  0.34375 0.28125 0  0.375 0.28125 0  0.40625 0.28125 0  0.4375 0.28125 0  0.46875 0.28125 0  0.5 0.28125 0  0.53125 0.28125 0  0.5625 0.28125 0  0.59375 0.28125 0  0.625 0.28125 0  0.65625 0.28125 0  0.6875 0.28125 0  0.71875 0.28125 0  0.75 0.28125 0  0.78125 0.28125 0  0.8125 0.28125 0  0.84375 0.28125 0  0.875 0.28125 0  0.90625 0.28125 0  0.9375 0.28125 0  0.96875 0.28125 0  1 0.28125 0  0 0.3125 0  0.03125 0.3125 0  0.0625 0.3125 0  0.09375 0.3125 0  0.125 0.3125 0  0.15625 0.3125 0  0.1875 0.3125 0  0.21875 0.3125 0  0.25 0.3125 0  0.28125 0.3125 0  0.3125 0.3125 0  0.34375 0.3125 0  0.375 0.3125 0  0.40625 0.3125 0  0.4375 0.3125 0  0.46875 0.3125 0  0.5 0.3125 0  0.53125 0.3125 0  0.5625 0.3125 0  0.59375 0.3125 0  0.625 0.3125 0  0.65625 0.3125 0  0.6875 0.3125 0  0.71875 0.3125 0  0.75 0.3125 0  0.78125 0.3125 0  0.8125 0.3125 0  0.84375 0.3125 0  0.875 0.3125 0  0.90625 0.3125 0  0.9375 0.3125 0  0.96875 0.3125 0  1 0.3125 0  0 0.34375 0  0.03125 0.34375 0  0.0625 0.34375 0  0.09375 0.34375 0  0.125 0.34375 0  0.15625 0.34375 0  0.1875 0.34375 0  0.21875 0.34375 0  0.25 0.34375 0  0.28125 0.34375 0  0.3125 0.34375 0  0.34375 0.34375 0  0.375 0.34375 0  0.40625 0.34375 0  0.4375 0.34375 0  0.46875 0.34375 0  0.5 0.34375 0  0.53125 0.34375 0  0.5625 0.34375 0  0.59375 0.34375 0  0.625 0.34375 0  0.65625 0.34375 0  0.6875 0.34375 0  0.71875 0.34375 0  0.75 0.34375 0  0.78125 0.34375 0  0.8125 0.34375 0  0.84375 0.34375 0  0.875 0.34375 0  0.90625 0.34375 0  0.9375 0.34375 0  0.96875 0.34375 0  1 0.34375 0  0 0.375 0  0.03125 0.375 0  0.0625 0.375 0  0.09375 0.375 0  0.125 0.375 0  0.15625 0.375 0  0.1875 0.375 0  0.21875 0.375 0  0.25 0.375 0  0.28125 0.375 0  0.3125 0.375 0  0.34375 0.375 0  0.375 0.375 0  0.40625 0.375 0  0.4375 0.375 0  0.46875 0.375 0  0.5 0.375 0  0.53125 0.375 0  0.5625 0.375 0  0.59375 0.375 0  0.625 0.375 0  0.65625 0.375 0  0.6875 0.375 0  0.71875 0.375 0  0.75 0.375 0  0.78125 0.375 0  0.8125 0.375 0  0.84375 0.375 0  0.875 0.375 0  0.90625 0.375 0  0.9375 0.375 0  0.96875 0.375 0  1 0.375 0  0 0.40625 0  0.03125 0.40625 0  0.0625 0.40625 0  0.09375 0.40625 0  0.125 0.40625 0  0.15625 0.40625 0  0.1875 0.40625 0  0.21875 0.40625 0  0.25 0.40625 0  0.28125 0.40625 0  0.3125 0.40625 0  0.34375 0.40625 0  0.375 0.40625 0  0.40625 0.40625 0  0.4375 0.40625 0  0.46875 0.40625 0  0.5 0.40625 0  0.53125 0.40625 0  0.5625 0.40625 0  0.59375 0.40625 0  0.625 0.40625 0  0.65625 0.40625 0  0.6875 0.40625 0  0.71875 0.40625 0  0.75 0.40625 0  0.78125 0.40625 0  0.8125 0.40625 0  0.84375 0.40625 0  0.875 0.40625 0  0.90625 0.40625 0  0.9375 0.40625 0  0.96875 0.40625 0  1 0.40625 0  0 0.4375 0  0.03125 0.4375 0  0.0625 0.4375 0  0.09375 0.4375 0  0.125 0.4375 0  0.15625 0.4375 0  0.1875 0.4375 0  0.21875 0.4375 0  0.25 0.4375 0  0.28125 0.4375 0  0.3125 0.4375 0  0.34375 0.4375 0  0.375 0.4375 0  0.40625 0.4375 0  0.4375 0.4375 0  0.46875 0.4375 0  0.5 0.4375 0  0.53125 0.4375 0  0.5625 0.4375 0  0.59375 0.4375 0  0.625 0.4375 0  0.65625 0.4375 0  0.6875 0.4375 0  0.71875 0.4375 0  0.75 0.4375 0  0.78125 0.4375 0  0.8125 0.4375 0  0.84375 0.4375 0  0.875 0.4375 0  0.90625 0.4375 0  0.9375 0.4375 0  0.96875 0.4375 0  1 0.4375 0  0 0.46875 0  0.03125 0.46875 0  0.0625 0.46875 0  0.09375 0.46875 0  0.125 0.46875 0  0.15625 0.46875 0  0.1875 0.46875 0  0.21875 0.46875 0  0.25 0.46875 0  0.28125 0.46875 0  0.3125 0.46875 0  0.34375 0.46875 0  0.375 0.46875 0  0.40625 0.46875 0  0.4375 0.46875 0  0.46875 0.46875 0  0.5 0.46875 0  0.53125 0.46875 0  0.5625 0.46875 0  0.59375 0.46875 0  0.625 0.46875 0  0.65625 0.46875 0  0.6875 0.46875 0  0.71875 0.46875 0  0.75 0.46875 0  0.78125 0.46875 0  0.8125 0.46875 0  0.84375 0.46875 0  0.875 0.46875 0  0.90625 0.46875 0  0.9375 0.46875 0  0.96875 0.46875 0  1 0.46875 0  0 0.5 0  0.03125 0.5 0  0.0625 0.5 0  0.09375 0.5 0  0.125 0.5 0  0.15625 0.5 0  0.1875 0.5 0  0.21875 0.5 0  0.25 0.5 0  0.28125 0.5 0  0.3125 0.5 0  0.34375 0.5 0  0.375 0.5 0  0.40625 0.5 0  0.4375 0.5 0  0.46875 0.5 0  0.5 0.5 0  0.53125 0.5 0  0.5625 0.5 0  0.59375 0.5 0  0.625 0.5 0  0.65625 0.5 0  0.6875 0.5 0  0.71875 0.5 0  0.75 0.5 0  0.78125 0.5 0  0.8125 0.5 0  0.84375 0.5 0  0.875 0.5 0  0.90625 0.5 0  0.9375 0.5 0  0.96875 0.5 0  1 0.5 0  0 0.53125 0  0.03125 0.53125 0  0.0625 0.53125 0  0.09375 0.53125 0  0.125 0.53125 0  0.15625 0.53125 0  0.1875 0.53125 0  0.21875 0.53125 0  0.25 0.53125 0  0.28125 0.53125 0  0.3125 0.53125 0  0.34375 0.53125 0  0.375 0.53125 0  0.40625 0.53125 0  0.4375 0.53125 0  0.46875 0.53125 0  0.5 0.53125 0  0.53125 0.53125 0  0.5625 0.53125 0  0.59375 0.53125 0  0.625 0.53125 0  0.65625 0.53125 0  0.6875 0.53125 0  0.71875 0.53125 0  0.75 0.53125 0  0.78125 0.531
[...]
<PointData  Scalars="v_sol"> 
<DataArray  type="Float64"  Name="v_sol"  format="ascii">3.0431320738539285e-05  4.9616501988677464e-04  6.2771905478004411e-04  3.0821294935312463e-04  -2.9983076195451296e-05  -4.6527835139109473e-04  -2.2330867838069398e-04  -9.9753330234430003e-05  -5.3913509365597365e-04  -1.6961825221511126e-03  -3.3404286573105401e-03  -4.5534601739733128e-03  -4.8653449777490698e-03  -4.2493485676948729e-03  -2.9445492060505649e-03  -1.2299305214861604e-03  6.0720194268390558e-04  2.3788333862512509e-03  3.8888724769496254e-03  4.9880506643205230e-03  5.5030107295810805e-03  5.3505682421199361e-03  4.5307230232914438e-03  3.1319819088583964e-03  1.2402835602802285e-03  -7.4050483483562338e-04  -2.0110208258306297e-03  -2.2401745058457305e-03  -1.7533116110842765e-03  -1.1261523637696167e-03  -6.4992145345695658e-04  -3.1301253837476528e-04  7.9253414948570738e-06  1.1646234819990357e-04  -2.6361263308909135e-03  -3.3829774743625606e-03  -1.8029426735427896e-03  -4.0448832541385620e-05  1.4192345458593776e-03  8.9405477779474227e-04  5.6472620695837306e-04  3.3798082774127661e-03  8.5317294676635971e-03  1.4336800647751280e-02  2.0212501927735205e-02  2.3934967803979072e-02  2.3585946834488194e-02  1.9004489432502176e-02  1.1063647578287202e-02  9.0994235348415358e-04  -1.0290883511097092e-02  -2.1121713995569769e-02  -2.9733943645665253e-02  -3.3976644517371132e-02  -3.2339787265055708e-02  -2.4958685733055642e-02  -1.3927787691930682e-02  -2.1210027983098812e-03  7.2235203251626318e-03  1.1650843711447745e-02  1.1270711206220212e-02  8.3928498905314029e-03  5.3605946472267485e-03  3.1966210338243450e-03  1.4544376221008154e-03  -2.2542998726491839e-04  -4.1989682694705787e-04  -9.3046922778463655e-03  -9.9955187934809616e-03  -5.0257669624247320e-03  2.6370303530129472e-04  5.7981548464747269e-03  1.2750539193969236e-02  2.1689077849420490e-02  3.7907526602082353e-02  5.6606990157927840e-02  7.0781409246647067e-02  7.5531969205288957e-02  7.0623111883857712e-02  5.8023164232714045e-02  4.0212666522707045e-02  1.8924075233213138e-02  -4.5800763199089949e-03  -2.9424354826687201e-02  -5.4153521645940547e-02  -7.6224440464306556e-02  -9.1310740249859759e-02  -9.4571410296590261e-02  -8.3397213519805002e-02  -6.0916167290964142e-02  -3.4162853140677581e-02  -9.2007519372645907e-03  1.0589330847980135e-02  2.1512125133971934e-02  2.2883541347335456e-02  1.8339954068626520e-02  1.2666766259273368e-02  7.2652023960702748e-03  2.1629615896483182e-04  -1.4344034306734707e-03  -1.7553098184965393e-02  -1.4059956932729477e-02  -1.1837411238943157e-03  9.5134574471524933e-03  2.3355164130644975e-02  4.5815858764208149e-02  7.6600112605332185e-02  1.0712392355665157e-01  1.2652198561983150e-01  1.3059835816911397e-01  1.2156005413713612e-01  1.0360448570376127e-01  8.0144869708638170e-02  5.3527662805270798e-02  2.4840446552976656e-02  -5.4789038604510631e-03  -3.7558100268071853e-02  -7.1241004387675499e-02  -1.0546941220680545e-01  -1.3666996921941724e-01  -1.5775210065659728e-01  -1.5919116367889391e-01  -1.3562432818879183e-01  -9.3802552364681782e-02  -4.9865456136608956e-02  -1.4742644501972307e-02  1.0281699072493105e-02  2.3868285476298122e-02  2.6350755398717035e-02  2.1925893012580085e-02  1.4745791352270306e-02  1.0616598379719073e-03  -3.5036996866192305e-03  -2.5043600399408814e-02  -1.2480677870295925e-02  1.1116950573643382e-02  3.5030885084719673e-02  6.6920528698696108e-02  1.1109492235249400e-01  1.5317129352456726e-01  1.7768233030999322e-01  1.8152337216592188e-01  1.6895579266264293e-01  1.4607650249400675e-01  1.1774247885515036e-01  8.7414774300404077e-02  5.6517110711376231e-02  2.5579820601924184e-02  -5.8430073405848579e-03  -3.8212121069878147e-02  -7.2391593870258467e-02  -1.0893506389536672e-01  -1.4792494000758535e-01  -1.8661157706737211e-01  -2.1636464770819505e-01  -2.2129470168708679e-01  -1.8817384250119301e-01  -1.2475207385687177e-01  -6.0032537698151769e-02  -1.4787516187077077e-02  1.2497907437720794e-02  2.5235632079291151e-02  2.6937748067679543e-02  2.0294632632196507e-02  1.6141369166827338e-03  -6.4253204150649590e-03  -2.7720597402211226e-02  1.4588024968047013e-04  3.6772485205378208e-02  7.9705650123164370e-02  1.3655099223217046e-01  1.9041248113565556e-01  2.2100373706084900e-01  2.2563865416237236e-01  2.0950193187943392e-01  1.8189632567068373e-01  1.4963225199511143e-01  1.1730891387114031e-01  8.5690051731218020e-02  5.5031576091651456e-02  2.4376203143622672e-02  -6.3831143216858347e-03  -3.7963699640304632e-02  -7.0304438808583739e-02  -1.0408470876566536e-01  -1.3973354282930989e-01  -1.7885822093027193e-01  -2.2144682852463315e-01  -2.6072174259903552e-01  -2.7444266890944602e-01  -2.3608340719491586e-01  -1.5008488697286146e-01  -6.2967264052053537e-02  -8.9290515533350170e-03  1.8067276922432998e-02  2.7143365212036353e-02  2.3143502916643962e-02  1.8311062406794845e-03  -9.2032723322541324e-03  -1.9763417316156953e-02  2.5447574793841680e-02  7.9684661128867323e-02  1.4681365655168385e-01  2.1328687594359660e-01  2.5394646942355603e-01  2.6286518437609668e-01  2.4520165426277640e-01  2.1463591377912827e-01  1.8058877361028211e-01  1.4793737977510538e-01  1.1657609413228780e-01  8.6080062354131209e-02  5.5519057580482312e-02  2.4828205792245862e-02  -6.3813480236964122e-03  -3.8014046851955106e-02  -7.0304132699394881e-02  -1.0300127737783134e-01  -1.3619574530366935e-01  -1.6993795108061688e-01  -2.0636651033056555e-01  -2.4898487262128946e-01  -2.9556148233999019e-01  -3.1862660900745815e-01  -2.7359967359721193e-01  -1.6130417296827015e-01  -5.3794133431833896e-02  2.8277190975032982e-03  2.4955782935798497e-02  2.4212440745876539e-02  2.0590056958612497e-03  -9.6498708583770271e-03  6.2064426307028707e-04  6.3801382565644896e-02  1.3940421772955067e-01  2.1928449868913069e-01  2.7590266975430788e-01  2.9449395278441826e-01  2.7882967212509352e-01  2.4728969131460818e-01  2.1269523364178761e-01  1.7999982838557307e-01  1.4895262848896862e-01  1.1833667436079090e-01  8.7800626806308291e-02  5.6949143202733907e-02  2.5928817982885630e-02  -5.5802668105033263e-03  -3.7400691564220254e-02  -6.9766508451282017e-02  -1.0244205529549742e-01  -1.3545902500091150e-01  -1.6839792979396573e-01  -2.0099294722367303e-01  -2.3468719806693966e-01  -2.7605595332375826e-01  -3.2823919542206625e-01  -3.5674054788808068e-01  -2.9436732288274298e-01  -1.4894945285646258e-01  -3.0828493823128512e-02  1.7343322333665596e-02  2.5673504020968060e-02  2.8520308016881314e-03  -5.8699883211546155e-03  3.4045651792557051e-02  1.1504420611855676e-01  2.0514300707315827e-01  2.8216226959226459e-01  3.1799113437671123e-01  3.1072845255980092e-01  2.8088696378569916e-01  2.4604887113286994e-01  2.1294920233785183e-01  1.8213063433726165e-01  1.5143190298643855e-01  1.2093224801663495e-01  8.9893881108900259e-02  5.8875738388770679e-02  2.7338884212239057e-02  -4.2576213096126450e-03  -3.6409016666576040e-02  -6.8694813154434556e-02  -1.0148677129148893e-01  -1.3429950402233365e-01  -1.6736298918465389e-01  -2.0010538349648721e-01  -2.3217835527384520e-01  -2.6407593746172620e-01  -3.0555175598143008e-01  -3.6398685750572241e-01  -3.8845148079933156e-01  -2.8708326092485709e-01  -1.0652005545929298e-01  -7.9791521340987859e-04  2.6849474730491773e-02  3.4883787514568016e-03  2.5038499861176652e-03  7.8918584037572112e-02  1.7093692866965690e-01  2.6693344655406270e-01  3.2917779690991461e-01  3.3955016004892680e-01  3.1606216958018324e-01  2.8046585082925551e-01  2.4678327903464473e-01  2.1570576146898651e-01  1.8517492298621299e-01  1.5434282809240771e-01  1.2330167262523599e-01  9.2026614307552129e-02  6.0673703448594615e-02  2.9057827521091078e-02  -2.7295399806233711e-03  -3.4852226287005190e-02  -6.7204558488777294e-02  -9.9903959021662936e-02  -1.3280135150146394e-01  -1.6588143992422399e-01  -1.9889677184661109e-01  -2.3178768137057135e-01  -2.6341460336245109e-01  -2.9435362868608667e-01  -3.3940538653011942e-01  -4.0562261443845049e-01  -4.0350045474149987e-01  -2.3480313418307977e-01  -4.0644431783331478e-02  2.1729231757353445e-02  7.4181586061818662e-03  1.4444519770908507e-02  1.2886229778450670e-01  2.2677810071098631e-01  3.1870653319232228e-01  3.5936927380766670e-01  3.5030536746266761e-01  3.1694108553913408e-01  2.8157157421406365e-01  2.5017058962568478e-01  2.1905324630412820e-01  1.8834954154322972e-01  1.5697591160034910e-01  1.2587357156768542e-01  9.4306844531328371e-02  6.2851759122827033e-02  3.0966167695031206e-02  -8.6173064335410036e-04  -3.3128765750112192e-02  -6.5423275841946918e-02  -9.8156413984428231e-02  -1.3093090952039355e-01  -1.6410096724442177e-01  -1.9717644209083396e-01  -2.3041719469564881e-01  -2.6354441085865810e-01  -2.9482763231189829e-01  -3.2569000354821415e-01  -3.8176759921813935e-01  -4.4912658732186966e-01  -3.7366533187103806e-01  -1.2848266534860922e-01  1.3732378590899144e-02  1.0526854189127749e-02  2.6488821845599749e-02  1.7944327407075553e-01  2.7660179443043692e-01  3.5820292920505059e-01  3.7876239977418097e-01  3.5538624074533182e-01  3.1919688705169835e-01  2.8521178001290121e-01  2.5374856583532590e-01  2.2263694129340561e-01  1.9144966359874041e-01  1.5988790030758102e-01  1.2841574986224932e-01  9.6594495613233036e-02  6.4979804926955126e-02  3.3066539378597493e-02  1.1814573525919540e-03  -3.1085433968325089e-02  -6.3407013878328866e-02  -9.6108047593115267e-02  -1.2891844893961146e-01  -1.6209458962401221e-01  -1.9545677401537298e-01  -2.2887106850522226e-01  -2.6221997415598686e-01  -2.9595560504750418e-01  -3.2585730887789627e-01  -3.6141796502091028e-01  -4.3833101479691033e-01  -4.6794471680856126e-01  -2.5776917619577011e-01  -6.8107343760921511e-03  8.4740748906798023e-03  3.6719067193532628e-02  2.2511862500110572e-01  3.1821130911710288e-01  3.8745628208840760e-01  3.9092907989591069e-01  3.5989111472812324e-01  3.2243720479159838e-01  2.8925844777177301e-01  2.5788550569480673e-01  2.2619843291508485e-01  1.9450983446156167e-01  1.6266475249611204e-01  1.3090024172384501e-01  9.9142795220551402e-02  6.7413725965311158e-02  3.5426381863304213e-02  3.4099683235348150e-03  -2.8836712982593649e-02  -6.1200053334365311e-02  -9.3854030811270001e-02  -1.2669782850383665e-01  -1.5981937676873065e-01  -1.9323612379690872e-01  -2.2716702628503277e-01  -2.6092561754512789e-01  -2.9496987406261432e-01  -3.2871615491470696e-01  -3.5682760775068462e-01  -4.1212508100607509e-01  -5.0073093499673671e-01  -3.8999347773866871e-01  -6.4210207804457742e-02  2.0193745341081530e-02  4.2787903417023113e-02  2.6291354243990700e-01  3.5067881481318924e-01  4.0842352894864031e-01  3.9996117931125363e-01  3.6417473774610032e-01  3.2693087961495931e-01  2.9397171778623210e-01  2.6161125659749851e-01  2.2964984588265658e-01  1.9752986774478970e-01  1.6548897242459090e-01  1.3358772927798307e-01  1.0169235466084729e-01  6.9700380066626932e-02  3.7776421686563026e-02  5.7817930596284666e-03  -2.6371588085094502e-02  -5.8736097538751371e-02  -9.1325079561985989e-02  -1.2421939287268020e-01  -1.5742608886034937e-01  -1.9091089544245513e-01  -2.2483552572579785e-01  -2.5941950222705323e-01  -2.9366415616123825e-01  -3.2917071545865328e-01  -3.6019293615383197e-01  -3.9547441537115435e-01  -4.9191260744705861e-01  -4.9270236990760929e-01  -1.5746769459140458e-01  4.5124183316650419e-02  4.4139453283604302e-02  2.9039024407724540e-01  3.7466637620567250e-01  4.2329258309121282e-01  4.0681959711514654e-01  3.6906325774136978e-01  3.3131375466475810e-01  2.9812011970989177e-01  2.6539595598264704e-01  2.3295405358385060e-01  2.0037571974420235e-01  1.6822715051628084e-01  1.3611072974201555e-01  1.0411368937597987e-01  7.2247878803837234e-02  4.0407165588396673e-02  8.3604309494444886e-03  -2.3738036379374553e-02  -5.6034001024693358e-02  -8.8538526655161431e-02  -1.2136348579094434e-01  -1.5455309224858008e-01  -1.8822874840445003e-01  -2.2225113615367564e-01  -2.5714972929031854e-01  -2.9229338639435609e-01  -3.2793752898997158e-01  -3.6357331329928400e-01  -3.9138559960531860e-01  -4.6903157412382934e-01  -5.5287241963326894e-01  -2.6568251797087333e-01  6.1409324905205225e-02  4.0440133102590904e-02  3.0668590388841582e-01  3.9074521208622187e-01  4.3325277242331622e-01  4.1267341635056082e-01  3.7357979719367074e-01  3.3578292279941135e-01  3.0215043149298254e-01  2.6865738016883067e-01  2.3593968133570722e-01  2.0311519040908382e-01  1.7083539613823345e-01  1.3855394748217736e-01  1.0664220151783917e-01  7.4732181386371013e-02  4.2808248311378604e-02  1.0951058883383238e-02  -2.0933540071976054e-02  -5.3066368209519453e-02  -8.5444288127603935e-02  -1.1818837975462067e-01  -1.5131311693493463e-01  -1.8500848888178051e-01  -2.1922253634375133e-01  -2.5416643873508810e-01  -2.9027482242739844e-01  -3.2615745499961807e-01  -3.6428504002094697e-01  -3.9392682703220955e-01  -4.4831462655174376e-01  -5.7696506076649767e-01  -3.7062977210397030e-01  6.1141905127404306e-02  3.2593243094657671e-02  3.1098710145731939e-01  3.9984766804343874e-01  4.3882052492529317e-01  4.1734304360140839e-01  3.7780547765916156e-01  3.3943431360176873e-01  3.0542326769760209e-01  2.7169679034826527e-01  2.3857513214940454e-01  2.0554203431752854e-01  1.7312423490232057e-01  1.4083369246168115e-01  1.0894622786349442e-01  7.7066189341163632e-02  4.5463630365315609e-02  1.3871986096634202e-02  -1.7933657589998288e-02  -4.9844461880877849e-02  -8.1991930584570993e-02  -1.1452020727239441e-01  -1.4753918457336768e-01  -1.8112933421105454e-01  -2.1554612632416920e-01  -2.5051324710901390e-01  -2.8708832125801370e-01  -3.2388790588670691e-01  -3.6264218480044502e-01  -3.9729115836915829e-01  -4.3481808478035266e-01  -5.7739894593311825e-01  -4.6198368695754632e-01  4.6101002341749867e-02  2.1354743827573863e-02  3.0332904491496437e-01  4.0209588238905297e-01  4.4045090245859175e-01  4.2092196432977919e-01  3.8121772208113336e-01  3.4284378332634136e-01  3.0810143057195410e-01  2.7408568352963480e-01  2.4076496319581145e-01  2.0767001585456307e-01  1.7513975167232262e-01  1.4291131648116057e-01  1.1107284405288580e-01  7.9430099378411875e-02  4.8028429515097240e-02  1.6523901171609408e-02  -1.4881127877256184e-02  -4.6345976908092591e-02  -7.8196407945540558e-02  -1.1038831858532491e-01  -1.4319393264912667e-01  -1.7654720675358798e-01  -2.1093237595637424e-01  -2.4603055603481583e-01  -2.8269746417441072e-01  -3.2049177842148363e-01  -3.5937397651335945e-01  -3.9847515225826141e-01  -4.2732731430001725e-01  -5.6531745467538219e-01  -5.3594248584347715e-01  2.1752844153142659e-02  8.7652594181273514e-03  2.8340175390891342e-01  3.9774020863272092e-01  4.3765076560595528e-01  4.2314674311941031e-01  3.8393907358134727e-01  3.4516182387450417e-01  3.1014246218005759e-01  2.7603084985164922e-01  2.4240960080435919e-01  2.0928570971623237e-01  1.7672426229607940e-01  1.4461372410222606e-01  1.1292668886343057e-01  8.1561367880683522e-02  5.0435434877297271e-02  1.9454300232722703e-02  -1.1397068133241315e-02  -4.2559175493713519e-02  -7.4005536071458017e-02  -1.0566176634603042e-01  -1.3814984787219242e-01  -1.7111777780042078e-01  -2.0534951588229233e-01  -2.4034544066836866e-01  -2.7706401695090160e-01  -3.1541716461377001e-01  -3.5472623856746838e-01  -3.9640107267043545e-01  -4.2294919266601239e-01  -5.4737282508965668e-01  -5.9296222955367006e-01  -7.0570616844227814e-03  -3.7637121987362365e-03  2.5214991423705058e-01  3.8565708657659381e-01  4.3085987485474997e-01  4.2332071929624093e-01  3.8604750971750795e-01  3.4728515452264724e-01  3.1133365479829134e-01  2.7719528999971321e-01  2.4355830352443331e-01  2.1042059343211028e-01  1.7787747167708065e-01  1.4592661919484989e-01  1.1447490520062267e-01  8.3472902807856061e-02  5.2764347828702630e-02  2.2341775227090858e-02  -8.2091534752965854e-03  -3.8646101503848090e-02  -6.9386676490409055e-02  -1.0034965799532217e-01  -1.3240976586976722e-01  -1.6465543639481778e-01  -1.9870170330448961e-01  -2.3319451625526916e-01  -2.7008220007460332e-01  -3.0825771429861759e-01  -3.4851639043039706e-01  -3.9086291946359619e-01  -4.1893066875451013e-01  -5.2673575579670162e-01  -6.3535113774857777e-01  -3.7028937855443006e-02  -1.2918217290977375e-02  2.1039053555289522e-01  3.6485868245646291e-01  4.1884684734726435e-01  4.2103104334349312e-01  3.8741444386853735e-01  3.4830810273442625e-01  3.1230430008654420e-01  2.7772571430143872e-01  2.4395744602534677e-01  2.1085390983107274e-01  1.7841384654877737e-01  1.4669903915538546e-01  1.1552787701563992e-01  8.5070482943230330e-02  5.4781229683643073e-02  2.5175076885032784e-02  -4.7676423875527268e-03  -3.4033440413613732e-02  -6.4379221332242720e-02  -9.4391364549894663e-02  -1.2586922240702583e-01  -1.5707205140433533e-01  -1.9088465476235295e-01  -2.2433320493327533e-01  -2.6152837850515465e-01  -2.9878935059520684e-01  -3.4033264537054309e-01  -3.8184019646080314e-01  -4.1331265119083210e-01  -5.0426771394277048e-01  -6.6581889806332717e-01  -6.6557665610487371e-02  -1.8038793170028659e-02  1.6203867160401084e-01  3.3258056805953679e-01  4.0211586132556126e-01  4.1446859948588877e-01  3.8813119738028840e-01  3.4952469461346958e-01  3.1222992731116861e-01  2.7754945083543414e-01  2.4373257120455855e-01  2.1067331147791429e-01  1.7822237305517852e-01  1.4694018823169894e-01  1.1596497284563613e-01  8.6329830734665436e-02  5.6440522581698314e-02  2.7963070407118928e-02  -1.4575847399321237e-03  -2.9517927159780091e-02  -5.9341413442476627e-02  -8.7599429017242159e-02  -1.1849807805430802e-01  -1.4829568888411121e-01  -1.8171868389943527e-01  -2.1367475914959733e-01  -2.5110429866728412e-01  -2.8683198198786664e-01  -3.2972011716934524e-01  -3.6925879757215885e-01  -4.0473469515357285e-01  -4.7987370403177465e-01  -6.8669604777580318e-01  -9.5126415714628723e-02  -1.6203834020526373e-02  1.1076503465425831e-01  2.8793361796439326e-01  3.7755084914753234e-01  4.0342903114223544e-01  3.8646410228825023e-01  3.4996098376300239e-01  3.1248114985563125e-01  2.7671247781310182e-01  2.4238034302771899e-01  2.0961277556465757e-01  1.7705568464383356e-01  1.4643075149050788e-01  1.1560292088841667e-01  8.7055578863224292e-02  5.7596701429606705e-02  3.0556611552574102e-02  1.7508258444850994e-03  -2.4521963831583577e-02  -5.3505536573623391e-02  -7.9931883299261819e-02  -1.1051174148330281e-01  -1.3820805929121027e-01  -1.7101923135238153e-01  -2.0113411978454068e-01  -2.3851413332074375e-01  -2.7225317472008087e-01  -3.1619574369567882e-01  -3.5292443748794350e-01  -3.9227241781872924e-01  -4.5298481586248612e-01  -6.9978240706141959e-01  -1.2295571467197242e-01  -1.3296885041821579e-02  6.5619368123794319e-02  2.3031385870715287e-01  3.4452047812005276e-01  3.8517944089249118e-01  3.8154889869114422e-01  3.5039421655337127e-01  3.1141440483314803e-01  2.7558135577136184e-01  2.4022791813711225e-01  2.0767069941192756e-01  1.7475998347177801e-01  1.4504988340276290e-01  1.1431570642061363e-01  8.7144178197851030e-02  5.8139181456588945e-02  3.2864773292254325e-02  4.7636041497509827e-03  -1.9494301845380400e-02  -4.7773091041674848e-02  -7.2042776923876062e-02  -1.0155307647450464e-01  -1.2650513605405411e-01  -1.5893868665767377e-01  -1.8660213907234094e-01  -2.2342974993016917e-01  -2.5495266308250869e-01  -2.9924752511361752e-01  -3.3250194543905198e-01  -3.7518458137986055e-01  -4.2298741967452402e-01  -7.0633138986771282e-01  -1.5063004910706537e-01  -6.7992661656260120e-03  2.9211958374227256e-02  1.6657044125877957e-01  2.9647565445277302e-01  3.6016265288517929e-01  3.6941710126499855e-01  3.4813803933395965e-01  3.1115091154227648e-01  2.7355747485305343e-01  2.3674596989263347e-01  2.0439001731094503e-01  1.7107808570658656e-01  1.4237284168818423e-01  1.1187376967000226e-01  8.6288823236058590e-02  5.7961306275856779e-02  3.4687042723459259e-02  7.5562749294432801e-03  -1.4386842903996767e-02  -4.1440598217703066e-02  -6.3022799385986122e-02  -9.1304658157124116e-02  -