<?xml version="1.0"?>
<VTKFile type="UnstructuredGrid"  version="0.1"  >
<UnstructuredGrid>
<Piece  NumberOfPoints="4225" NumberOfCells="4096">
<Points>
<DataArray  type="Float64"  NumberOfComponents="3"  format="ascii">0 0 0  0.015625 0 0  0.03125 0 0  0.046875 0 0  0.0625 0 0  0.078125 0 0  0.09375 0 0  0.109375 0 0  0.125 0 0  0.140625 0 0  0.15625 0 0  0.171875 0 0  0.1875 0 0  0.203125 0 0  0.21875 0 0  0.234375 0 0  0.25 0 0  0.265625 0 0  0.28125 0 0  0.296875 0 0  0.3125 0 0  0.328125 0 0  0.34375 0 0  0.359375 0 0  0.375 0 0  0.390625 0 0  0.40625 0 0  0.421875 0 0  0.4375 0 0  0.453125 0 0  0.46875 0 0  0.484375 0 0  0.5 0 0  0.515625 0 0  0.53125 0 0  0.546875 0 0  0.5625 0 0  0.578125 0 0  0.59375 0 0  0.609375 0 0  0.625 0 0  0.640625 0 0  0.65625 0 0  0.671875 0 0  0.6875 0 0  0.703125 0 0  0.71875 0 0  0.734375 0 0  0.75 0 0  0.765625 0 0  0.78125 0 0  0.796875 0 0  0.8125 0 0  0.828125 0 0  0.84375 0 0  0.859375 0 0  0.875 0 0  0.890625 0 0  0.90625 0 0  0.921875 0 0  0.9375 0 0  0.953125 0 0  0.96875 0 0  0.984375 0 0  1 0 0  0 0.015625 0  0.015625 0.015625 0  0.03125 0.015625 0  0.046875 0.015625 0  0.0625 0.015625 0  0.078125 0.015625 0  0.09375 0.015625 0  0.109375 0.015625 0  0.125 0.015625 0  0.140625 0.015625 0  0.15625 0.015625 0  0.171875 0.015625 0  0.1875 0.015625 0  0.203125 0.015625 0  0.21875 0.015625 0  0.234375 0.015625 0  0.25 0.015625 0  0.265625 0.015625 0  0.28125 0.015625 0  0.296875 0.015625 0  0.3125 0.015625 0  0.328125 0.015625 0  0.34375 0.015625 0  0.359375 0.015625 0  0.375 0.015625 0  0.390625 0.015625 0  0.40625 0.015625 0  0.421875 0.015625 0  0.4375 0.015625 0  0.453125 0.015625 0  0.46875 0.015625 0  0.484375 0.015625 0  0.5 0.015625 0  0.515625 0.015625 0  0.53125 0.015625 0  0.546875 0.015625 0  0.5625 0.015625 0  0.578125 0.015625 0  0.59375 0.015625 0  0.609375 0.015625 0  0.625 0.015625 0  0.640625 0.015625 0  0.65625 0.015625 0  0.671875 0.015625 0  0.6875 0.015625 0  0.703125 0.015625 0  0.71875 0.015625 0  0.734375 0.015625 0  0.75 0.015625 0  0.765625 0.015625 0  0.78125 0.015625 0  0.796875 0.015625 0  0.8125 0.015625 0  0.828125 0.015625 0  0.84375 0.015625 0  0.859375 0.015625 0  0.875 0.015625 0  0.890625 0.015625 0  0.90625 0.015625 0  0.921875 0.015625 0  0.9375 0.015625 0  0.953125 0.015625 0  0.96875 0.015625 0  0.984375 0.015625 0  1 0.015625 0  0 0.03125 0  0.015625 0.03125 0  0.03125 0.03125 0  0.046875 0.03125 0  0.0625 0.03125 0  0.078125 0.03125 0  0.09375 0.03125 0  0.109375 0.03125 0  0.125 0.03125 0  0.140625 0.03125 0  0.15625 0.03125 0  0.171875 0.03125 0  0.1875 0.03125 0  0.203125 0.03125 0  0.21875 0.03125 0  0.234375 0.03125 0  0.25 0.03125 0  0.265625 0.03125 0  0.28125 0.03125 0  0.296875 0.03125 0  0.3125 0.03125 0  0.328125 0.03125 0  0.34375 0.03125 0  0.359375 0.03125 0  0.375 0.03125 0  0.390625 0.03125 0  0.40625 0.03125 0  0.421875 0.03125 0  0.4375 0.03125 0  0.453125 0.03125 0  0.46875 0.03125 0  0.484375 0.03125 0  0.5 0.03125 0  0.515625 0.03125 0  0.53125 0.03125 0  0.546875 0.03125 0  0.5625 0.03125 0  0.578125 0.03125 0  0.59375 0.03125 0  0.609375 0.03125 0  0.625 0.03125 0  0.640625 0.03125 0  0.65625 0.03125 0  0.671875 0.03125 0  0.6875 0.03125 0  0.703125 0.03125 0  0.71875 0.03125 0  0.734375 0.03125 0  0.75 0.03125 0  0.765625 0.03125 0  0.78125 0.03125 0  0.796875 0.03125 0  0.8125 0.03125 0  0.828125 0.03125 0  0.84375 0.03125 0  0.859375 0.03125 0  0.875 0.03125 0  0.890625 0.03125 0  0.90625 0.03125 0  0.921875 0.03125 0  0.9375 0.03125 0  0.953125 0.03125 0  0.96875 0.03125 0  0.984375 0.03125 0  1 0.03125 0  0 0.046875 0  0.015625 0.046875 0  0.03125 0.046875 0  0.046875 0.046875 0  0.0625 0.046875 0  0.078125 0.046875 0  0.09375 0.046875 0  0.109375 0.046875 0  0.125 0.046875 0  0.140625 0.046875 0  0.15625 0.046875 0  0.171875 0.046875 0  0.1875 0.046875 0  0.203125 0.046875 0  0.21875 0.046875 0  0.234375 0.046875 0  0.25 0.046875 0  0.265625 0.046875 0  0.28125 0.046875 0  0.296875 0.046875 0  0.3125 0.046875 0  0.328125 0.046875 0  0.34375 0.046875 0  0.359375 0.046875 0  0.375 0.046875 0  0.390625 0.046875 0  0.40625 0.046875 0  0.421875 0.046875 0  0.4375 0.046875 0  0.453125 0.046875 0  0.46875 0.046875 0  0.484375 0.046875 0  0.5 0.046875 0  0.515625 0.046875 0  0.53125 0.046875 0  0.546875 0.046875 0  0.5625 0.046875 0  0.578125 0.046875 0  0.59375 0.046875 0  0.609375 0.046875 0  0.625 0.046875 0  0.640625 0.046875 0  0.65625 0.046875 0  0.671875 0.046875 0  0.6875 0.046875 0  0.703125 0.046875 0  0.71875 0.046875 0  0.734375 0.046875 0  0.75 0.046875 0  0.765625 0.046875 0  0.78125 0.046875 0  0.796875 0.046875 0  0.8125 0.046875 0  0.828125 0.046875 0  0.84375 0.046875 0  0.859375 0.046875 0  0.875 0.046875 0  0.890625 0.046875 0  0.90625 0.046875 0  0.921875 0.046875 0  0.9375 0.046875 0  0.953125 0.046875 0  0.96875 0.046875 0  0.984375 0.046875 0  1 0.046875 0  0 0.0625 0  0.015625 0.0625 0  0.03125 0.0625 0  0.046875 0.0625 0  0.0625 0.0625 0  0.078125 0.0625 0  0.09375 0.0625 0  0.109375 0.0625 0  0.125 0.0625 0  0.140625 0.0625 0  0.15625 0.0625 0  0.171875 0.0625 0  0.1875 0.0625 0  0.203125 0.0625 0  0.21875 0.0625 0  0.234375 0.0625 0  0.25 0.0625 0  0.265625 0.0625 0  0.28125 0.0625 0  0.296875 0.0625 0  0.3125 0.0625 0  0.328125 0.0625 0  0.34375 0.0625 0  0.359375 0.0625 0  0.375 0.0625 0  0.390625 0.0625 0  0.40625 0.0625 0  0.421875 0.0625 0  0.4375 0.0625 0  0.453125 0.0625 0  0.46875 0.0625 0  0.484375 0.0625 0  0.5 0.0625 0  0.515625 0.0625 0  0.53125 0.0625 0  0.546875 0.0625 0  0.5625 0.0625 0  0.578125 0.0625 0  0.59375 0.0625 0  0.609375 0.0625 0  0.625 0.0625 0  0.640625 0.0625 0  0.65625 0.0625 0  0.671875 0.0625 0  0.6875 0.0625 0  0.703125 0.0625 0  0.71875 0.0625 0  0.734375 0.0625 0  0.75 0.0625 0  0.765625 0.0625 0  0.78125 0.0625 0  0.796875 0.0625 0  0.8125 0.0625 0  0.828125 0.0625 0  0.84375 0.0625 0  0.859375 0.0625 0  0.875 0.0625 0  0.890625 0.0625 0  0.90625 0.0625 0  0.921875 0.0625 0  0.9375 0.0625 0  0.953125 0.0625 0  0.96875 0.0625 0  0.984375 0.0625 0  1 0.0625 0  0 0.078125 0  0.015625 0.078125 0  0.03125 0.078125 0  0.046875 0.078125 0  0.0625 0.078125 0  0.078125 0.078125 0  0.09375 0.078125 0  0.109375 0.078125 0  0.125 0.078125 0  0.140625 0.078125 0  0.15625 0.078125 0  0.171875 0.078125 0  0.1875 0.078125 0  0.203125 0.078125 0  0.21875 0.078125 0  0.234375 0.078125 0  0.25 0.078125 0  0.265625 0.078125 0  0.28125 0.078125 0  0.296875 0.078125 0  0.3125 0.078125 0  0.328125 0.078125 0  0.34375 0.078125 0  0.359375 0.078125 0  0.375 0.078125 0  0.390625 0.078125 0  0.40625 0.078125 0  0.421875 0.078125 0  0.4375 0.078125 0  0.453125 0.078125 0  0.46875 0.078125 0  0.484375 0.078125 0  0.5 0.078125 0  0.515625 0.078125 0  0.53125 0.078125 0  0.546875 0.078125 0  0.5625 0.078125 0  0.578125 0.078125 0  0.59375 0.078125 0  0.609375 0.078125 0  0.625 0.078125 0  0.640625 0.078125 0  0.65625 0.078125 0  0.671875 0.078125 0  0.6875 0.078125 0  0.703125 0.078125 0  0.71875 0.078125 0  0.734375 0.078125 0  0.75 0.078125 0  0.765625 0.078125 0  0.78125 0.078125 0  0.796875 0.078125 0  0.8125 0.078125 0  0.828125 0.078125 0  0.84375 0.078125 0  0.859375 0.078125 0  0.875 0.078125 0  0.890625 0.078125 0  0.90625 0.078125 0  0.921875 0.078125 0  0.9375 0.078125 0  0.953125 0.078125 0  0.96875 0.078125 0  0.984375 0.078125 0  1 0.078125 0  0 0.09375 0  0.015625 0.09375 0  0.03125 0.09375 0  0.046875 0.09375 0  0.0625 0.09375 0  0.078125 0.09375 0  0.09375 0.09375 0  0.109375 0.09375 0  0.125 0.09375 0  0.140625 0.09375 0  0.15625 0.09375 0  0.171875 0.09375 0  0.1875 0.09375 0  0.203125 0.09375 0  0.21875 0.09375 0  0.234375 0.09375 0  0.25 0.09375 0  0.265625 0.09375 0  0.28125 0.09375 0  0.296875 0.09375 0  0.3125 0.09375 0  0.328125 0.09375 0  0.34375 0.09375 0  0.359375 0.09375 0  0.375 0.09375 0  0.390625 0.09375 0  0.40625 0.09375 0  0.421875 0.09375 0  0.4375 0.09375 0  0.453125 0.09375 0  0.46875 0.09375 0  0.484375 0.09375 0  0.5 0.09375 0  0.515625 0.09375 0  0.53125 0.09375 0  0.546875 0.09375 0  0.5625 0.09375 0  0.578125 0.09375 0  0.59375 0.09375 0  0.609375 0.09375 0  0.625 0.09375 0  0.640625 0.09375 0  0.65625 0.09375 0  0.671875 0.09375 0  0.6875 0.09375 0  0.703125 0.09375 0  0.71875 0.09375 0  0.734375 0.09375 0  0.75 0.09375 0  0.765625 0.09375 0  0.78125 0.09375 0  0.796875 0.09375 0  0.8125 0.09375 0  0.828125 0.09375 0  0.84375 0.09375 0  0.859375 0.09375 0  0.875 0.09375 0  0.890625 0.09375 0  0.90625 0.09375 0  0.921875 0.09375 0  0.9375 0.09375 0  0.953125 0.09375 0  0.96875 0.09375 0  0.984375 0.09375 0  1 0.09375 0  0 0.109375 0  0.015625 0.109375 0  0.03125 0.109375 0  0.046875 0.109375 0  0.0625 0.109375 0  0.078125 0.109375 0  0.09375 0.109375 0  0.109375 0.109375 0  0.125 0.109375 0  0.140625 0.109375 0  0.15625 0.109375 0  0.171875 0.109375 0  0.1875 0.109375 0  0.203125 0.109375 0  0.21875 0.109375 0  0.234375 0.109375 0  0.25 0.109375 0  0.265625 0.109375 0  0.28125 0.109375 0  0.296875 0.109375 0  0.3125 0.109375 0  0.328125 0.109375 0  0.34375 0.109375 0  0.359375 0.109375 0  0.375 0.109375 0  0.390625 0.109375 0  0.40625 0.109375 0  0.421875 0.109375 0  0.4375 0.109375 0  0.453125 0.109375 0  0.46875 0.109375 0  0.484375 0.109375 0  0.5 0.109375 0  0.515625 0.109375 0  0.53125 0.109375 0  0.546875 0.109375 0  0.5625 0.109375 0  0.578125 0.109375 0  0.59375 0.109375 0  0.609375 0.109375 0  0.625 0.109375 0  0.640625 0.109375 0  0.65625 0.109375 0  0.671875 0.109375 0  0.6875 0.109375 0  0.703125 0.109375 0  0.71875 0.109375 0  0.734375 0.109375 0  0.75 0.109375 0  0.765625 0.109375 0  0.78125 0.109375 0  0.796875 0.109375 0  0.8125 0.109375 0  0.828125 0.109375 0  0.84375 0.109375 0  0.859375 0.109375 0  0.875 0.109375 0  0.890625 0.109375 0  0.90625 0.109375 0  0.921875 0.109375 0  0.9375 0.109375 0  0.953125 0.109375 0  0.96875 0.109375 0  0.984375 0.109375 0  1 0.109375 0  0 0.125 0  0.015625 0.125 0  0.03125 0.125 0  0.046875 0.125 0  0.0625 0.125 0  0.078125 0.125 0  0.09375 0.125 0  0.109375 0.125 0  0.125 0.12
[...]
<PointData  Scalars="v_sol"> 
<DataArray  type="Float64"  Name="v_sol"  format="ascii">4.9033323817973085e-09  1.2195134232892681e-06  2.3740855878357070e-06  3.4667854728507711e-06  4.4959520536389638e-06  5.4599589937221092e-06  6.3572601775752090e-06  7.1863861152383831e-06  7.9459539371623092e-06  8.6346741626415366e-06  9.2513587629128052e-06  9.7949293250193314e-06  1.0264425650733295e-05  1.0659014717715937e-05  1.0978000038867661e-05  1.1220831427506066e-05  1.1387115183964481e-05  1.1476624717653591e-05  1.1489311619583063e-05  1.1425317200656176e-05  1.1284984511499067e-05  1.1068870860112633e-05  1.0777760844046678e-05  1.0412679914356434e-05  9.9749084890761328e-06  9.4659966344281768e-06  8.8877793326392175e-06  8.2423923556542461e-06  7.5322887646463075e-06  6.7602560558885204e-06  5.9294339740024659e-06  5.0433330143256140e-06  4.1058536367236311e-06  3.1213062137806798e-06  2.0944317370758218e-06  1.0304233058224138e-06  -6.5051577119448050e-08  -1.1858278761105311e-06  -2.3252190340590314e-06  -3.4759920968567984e-06  -4.6303419231034550e-06  -5.7798644502473590e-06  -6.9155289875203403e-06  -8.0276495052889512e-06  -9.1058548895343309e-06  -1.0139058129287048e-05  -1.1115424403923027e-05  -1.2022338036421916e-05  -1.2846368277567334e-05  -1.3573233885244249e-05  -1.4187766461882343e-05  -1.4673872512207740e-05  -1.5014494181867823e-05  -1.5191568638678781e-05  -1.5185986047985734e-05  -1.4977546128525406e-05  -1.4544913133645603e-05  -1.3865569641720945e-05  -1.2915767478496658e-05  -1.1670481890082615e-05  -1.0103345733276722e-05  -8.1866504437216202e-06  -5.8910898116009587e-06  -3.1864518669666552e-06  -3.8785672623549282e-08  -2.4561749495580132e-08  -6.1087797788796589e-06  -1.1892256178895258e-05  -1.7365802307737506e-05  -2.2521097756356297e-05  -2.7349995910817768e-05  -3.1844751962448630e-05  -3.5998004958536752e-05  -3.9802827832896237e-05  -4.3252761327675123e-05  -4.6341854375078093e-05  -4.9064704995124307e-05  -5.1416503367925816e-05  -5.3393076722451656e-05  -5.4990936219096762e-05  -5.6207325865472788e-05  -5.7040273543021312e-05  -5.7488644215017170e-05  -5.7552195390973658e-05  -5.7231634924238641e-05  -5.6528681221644691e-05  -5.5446125946882241e-05  -5.3987899301203679e-05  -5.2159137967914979e-05  -4.9966255809539135e-05  -4.7417017408824094e-05  -4.4520614548234994e-05  -4.1287745724465936e-05  -3.7730698797698186e-05  -3.3863436878621893e-05  -2.9701687558437823e-05  -2.5263035590842555e-05  -2.0567019137748889e-05  -1.5635229693623129e-05  -1.0491415807274407e-05  -5.1615907226104701e-06  3.2585593631568940e-07  5.9400423069716720e-06  1.1647474124476520e-05  1.7411920115043659e-05  2.3194282807502739e-05  2.8952464618256988e-05  3.4641229061202036e-05  4.0212056930540232e-05  4.5612997299730215e-05  5.0788513175377588e-05  5.5679321640309533e-05  6.0222228316057433e-05  6.4349955969276331e-05  6.7990967082540626e-05  7.1069280204540743e-05  7.3504279889774029e-05  7.5210520031170693e-05  7.6097520391537425e-05  7.6069556097163631e-05  7.5025440009497853e-05  7.2858297237569369e-05  6.9455333615035274e-05  6.4697589981264751e-05  5.8459712342731206e-05  5.0609622842497043e-05  4.1008523334910893e-05  2.9509614101558730e-05  1.5961556989793065e-05  1.9428480251325669e-07  -1.0879579592249068e-07  -2.7058749704449797e-05  -5.2676572888868413e-05  -7.6921564399618286e-05  -9.9756869412358755e-05  -1.2114640223103848e-04  -1.4105585761021747e-04  -1.5945263019918212e-04  -1.7630603672470776e-04  -1.9158746598041016e-04  -2.0527055781344948e-04  -2.1733138423329378e-04  -2.2774864021855927e-04  -2.3650384254391107e-04  -2.4358153744867209e-04  -2.4896951730728764e-04  -2.5265904665143621e-04  -2.5464509785393325e-04  -2.5492659680763152e-04  -2.5350667893881551e-04  -2.5039295590524406e-04  -2.4559779333964665e-04  -2.3913860000987416e-04  -2.3103812877808588e-04  -2.2132478975258750e-04  -2.1003297603718046e-04  -1.9720340249552393e-04  -1.8288345795955952e-04  -1.6712757132343966e-04  -1.4999759197836763e-04  -1.3156318505583729e-04  -1.1190224196077824e-04  -9.1101306690344772e-05  -6.9256018447664812e-05  -4.6471571075551752e-05  -2.2863189849656278e-05  1.4433738141606651e-06  2.6311329167165973e-05  5.1592313862730094e-05  7.7125842014151590e-05  1.0273873195549995e-04  1.2824451306618420e-04  1.5344281100245985e-04  1.7811871066092521e-04  2.0204209618001508e-04  2.2496696726595182e-04  2.4663073110909982e-04  2.6675346913754467e-04  2.8503717783213555e-04  3.0116498280690913e-04  3.1480032533465603e-04  3.2558612048027652e-04  3.3314388596093433e-04  3.3707284090010216e-04  3.3694897335592310e-04  3.3232407644003366e-04  3.2272474926682755e-04  3.0765137209282968e-04  2.8657701624448508e-04  2.5894643012138141e-04  2.2417457242485564e-04  1.8164664794756151e-04  1.3071239583236594e-04  7.0701475580741386e-05  8.6058426874907927e-07  -2.4220334133533493e-07  -6.0238733341041018e-05  -1.1726964704553846e-04  -1.7124433516219769e-04  -2.2208075088603211e-04  -2.6969855932277843e-04  -3.1402138956087802e-04  -3.5497665488101022e-04  -3.9249604759076774e-04  -4.2651587284980625e-04  -4.5697744716507522e-04  -4.8382750156859979e-04  -5.0701860639867859e-04  -5.2650961393164791e-04  -5.4226612069800759e-04  -5.5426094983863049e-04  -5.6247465427959706e-04  -5.6689604141657102e-04  -5.6752272005024652e-04  -5.6436167032850081e-04  -5.5742983747515923e-04  -5.4675475010835097e-04  -5.3237516397489234e-04  -5.1434173195185511e-04  -4.9271770119163150e-04  -4.6757963831199400e-04  -4.3901818356014154e-04  -4.0713883490603111e-04  -3.7206276304836678e-04  -3.3392765834592940e-04  -2.9288861071589197e-04  -2.4911902357082841e-04  -2.0281156289771819e-04  -1.5417914261365499e-04  -1.0345594736616911e-04  -5.0898493979452510e-05  3.2132672180701264e-06  5.8574809913761930e-05  1.1485584687107409e-04  1.7169910118485161e-04  2.2871903235027136e-04  2.8550051572297740e-04  3.4159747390846359e-04  3.9653145857805562e-04  4.4979018116625055e-04  5.0082599086106582e-04  5.4905429825408884e-04  5.9385194297225221e-04  6.3455550356538251e-04  6.7045954787670981e-04  7.0081482207074591e-04  7.2482637645362210e-04  7.4165162612620402e-04  7.5039834461312243e-04  7.5012258797716802e-04  7.3982654901685277e-04  7.1845633313144812e-04  6.8489967687430963e-04  6.3798352085230677e-04  5.7647175345051634e-04  4.9906194252657477e-04  4.0438542238568442e-04  2.9099456247360782e-04  1.5739704289873059e-04  1.9158508049252082e-06  -4.1964558830239072e-07  -1.0437064987155387e-04  -2.0318337706268799e-04  -2.9670083596907478e-04  -3.8478087098058663e-04  -4.6728429238458512e-04  -5.4407877871146849e-04  -6.1503856497198623e-04  -6.8004530012568710e-04  -7.3898862542317375e-04  -7.9176686486382558e-04  -8.3828772374146298e-04  -8.7846902462984286e-04  -9.1223947429299986e-04  -9.3953946470223750e-04  -9.6032190877455006e-04  -9.7455311218183670e-04  -9.8221368242804572e-04  -9.8329947647902310e-04  -9.7782258825405304e-04  -9.6581237733077126e-04  -9.4731654025433315e-04  -9.2240222588295742e-04  -8.9115719624438820e-04  -8.5369103442152635e-04  -8.1013640102938411e-04  -7.6065034089267344e-04  -7.0541564157909143e-04  -6.4464224549259160e-04  -5.7856871728076832e-04  -5.0746376836107452e-04  -4.3162784042332264e-04  -3.5139474981942220e-04  -2.6713339480705247e-04  -1.7924952767048210e-04  -8.8187593799857024e-05  5.5673601300755819e-06  1.0148770667960825e-04  1.9900118459690555e-04  2.9748876987383221e-04  3.9628246851040742e-04  4.9466302852397106e-04  5.9185756867012997e-04  6.8703712127199921e-04  7.7931408648046875e-04  8.6773959521343558e-04  9.5130077794490866e-04  1.0289179364359818e-03  1.0994416154177244e-03  1.1616495711545170e-03  1.2142436337244807e-03  1.2558464597862355e-03  1.2849981724356151e-03  1.3001528849378534e-03  1.2996751040120448e-03  1.2818360119930738e-03  1.2448096132308126e-03  1.1866687813106012e-03  1.1053810535849630e-03  9.9880472257101805e-04  8.6468317155455560e-04  7.0064502925186640e-04  5.0418210268431227e-04  2.7270877696241338e-04  3.3194357138118648e-06  -6.3608477838243631e-07  -1.5820155140799360e-04  -3.0797858886624817e-04  -4.4972923514553819e-04  -5.8323801555767215e-04  -7.0829395089487145e-04  -8.2469647272974975e-04  -9.3225495068328262e-04  -1.0307899922181087e-03  -1.1201343192365481e-03  -1.2001338146640050e-03  -1.2706485812764286e-03  -1.3315540572835414e-03  -1.3827421787851702e-03  -1.4241225939261434e-03  -1.4556239296805223e-03  -1.4771951133109036e-03  -1.4888067503174389e-03  -1.4904525608237587e-03  -1.4821508763841315e-03  -1.4639461992605430e-03  -1.4359108262780528e-03  -1.3981465394289063e-03  -1.3507863654608110e-03  -1.2939964067501398e-03  -1.2279777458283588e-03  -1.1529684260005737e-03  -1.0692455105650602e-03  -9.7712722321710468e-04  -8.7697517229588426e-04  -7.6919666160992872e-04  -6.5424709065671916e-04  -5.3263244713313510e-04  -4.0491189471786044e-04  -2.7170045919227209e-04  -1.3367181605510685e-04  8.4388171240806209e-06  1.5383168027442587e-04  3.0163935888264005e-04  4.5092355700975071e-04  6.0067175163566429e-04  7.4979372459736790e-04  8.9711796828157440e-04  1.0413879611254236e-03  1.1812583088674337e-03  1.3152907473774533e-03  1.4419500027774131e-03  1.5595995044452894e-03  1.6664969463702731e-03  1.7607896922035733e-03  1.8405100192099906e-03  1.9035701962230275e-03  1.9477573904555755e-03  1.9707283982935910e-03  1.9700041935182470e-03  1.9429642919411543e-03  1.8868409102346733e-03  1.7987129744969094e-03  1.6754997456020616e-03  1.5139548950922992e-03  1.3106579181652567e-03  1.0620143707706041e-03  7.6422241523202298e-04  4.1336286580005396e-04  5.0314899132112671e-06  -8.8667949630567986e-07  -2.2052732291211313e-04  -4.2931117365598102e-04  -6.2690652117465572e-04  -8.1301300146260848e-04  -9.8733651696303543e-04  -1.1495974824708122e-03  -1.2995301660367528e-03  -1.4368845008833698e-03  -1.5614273073252041e-03  -1.6729437516756693e-03  -1.7712388222103728e-03  -1.8561388842506235e-03  -1.9274933005852060e-03  -1.9851761239587404e-03  -2.0290878629234486e-03  -2.0591573239063243e-03  -2.0753435320209853e-03  -2.0776377333389003e-03  -2.0660654813856095e-03  -2.0406888107181650e-03  -2.0016085005223308e-03  -1.9489664312553770e-03  -1.8829480374502529e-03  -1.8037848598882777e-03  -1.7117572004418258e-03  -1.6071968829862798e-03  -1.4904901238787507e-03  -1.3620805156046828e-03  -1.2224721272981790e-03  -1.0722327259496444e-03  -9.1199712222539268e-04  -7.4247064493735435e-04  -5.6443274831854495e-04  -3.7874075637892197e-04  -1.8633374874011988e-04  1.1763407527151474e-05  2.1443587540978512e-04  4.2047451001648797e-04  6.2857136027713633e-04  8.3731500521657982e-04  1.0451857195979391e-03  1.2505504635840711e-03  1.4516576909158908e-03  1.6466319699516192e-03  1.8334684117524806e-03  2.0100268992375354e-03  2.1740261112639945e-03  2.3230373353153597e-03  2.4544780623081499e-03  2.5656053568331840e-03  2.6535089960046418e-03  2.7151043697408424e-03  2.7471251356848249e-03  2.7461156196250699e-03  2.7084229600094190e-03  2.6301889655555282e-03  2.5073417634507759e-03  2.3355869132102892e-03  2.1103991489949676e-03  1.8270104088142743e-03  1.4804101669728985e-03  1.0652987957681767e-03  5.7621309254896362e-04  7.0137173947296999e-06  -1.1667591365077962e-06  -2.9018633183878248e-04  -5.6491972535278824e-04  -8.2493045013143926e-04  -1.0698232647847576e-03  -1.2992111737177667e-03  -1.5127262778490600e-03  -1.7100189072277400e-03  -1.8907600053252348e-03  -2.0546427369085292e-03  -2.2013844077829231e-03  -2.3307284069708179e-03  -2.4424462530063984e-03  -2.5363397262064607e-03  -2.6122430957726604e-03  -2.6700254434306871e-03  -2.7095930873598561e-03  -2.7308921097410222e-03  -2.7339109914950345e-03  -2.7186833578510734e-03  -2.6852908385031006e-03  -2.6338660462212411e-03  -2.5645956778995423e-03  -2.4777237421401556e-03  -2.3735549175938073e-03  -2.2524580464010316e-03  -2.1148697672069209e-03  -1.9612982923517238e-03  -1.7923273339758212e-03  -1.6086201839155337e-03  -1.4109239524079942e-03  -1.2000739707694272e-03  -9.7699836336088085e-04  -7.4272279430950122e-04  -4.9837539461083556e-04  -2.4519187539974728e-04  1.5479166657040939e-05  2.8217074572323326e-04  5.5329177861193819e-04  8.2712116558401199e-04  1.1018016534663862e-03  1.3753334742415203e-03  1.6455677520665650e-03  1.9101996714835307e-03  2.1667613993779857e-03  2.4126147530357362e-03  2.6449436064323894e-03  2.8607460266715065e-03  3.0568261322587659e-03  3.2297856646726145e-03  3.3760152644366592e-03  3.4916854427099455e-03  3.5727372389524415e-03  3.6148725557281123e-03  3.6135441586174102e-03  3.5639453393923460e-03  3.4609992016497088e-03  3.2993476709238280e-03  3.0733398015582009e-03  2.7770209108685614e-03  2.4041168264630612e-03  1.9480343251977892e-03  1.4017997599019456e-03  7.5822424244025271e-04  9.2291732818182334e-06  -1.4718307460589689e-06  -3.6606112972308432e-04  -7.1262885315474139e-04  -1.0406243828770146e-03  -1.3495491340394443e-03  -1.6389149235607342e-03  -1.9082576580886376e-03  -2.1571362397468830e-03  -2.3851355738746826e-03  -2.5918685972918997e-03  -2.7769786999979765e-03  -2.9401421751666214e-03  -3.0810708004826459e-03  -3.1995145279346405e-03  -3.2952642932350647e-03  -3.3681549470190100e-03  -3.4180683125565915e-03  -3.4449363741769234e-03  -3.4487446009100753e-03  -3.4295354099376945e-03  -3.3874117745934015e-03  -3.3225409817905487e-03  -3.2351585438998081e-03  -3.1255722702485914e-03  -2.9941665035654011e-03  -2.8414065268493188e-03  -2.6678431463070290e-03  -2.4741174561626412e-03  -2.2609657913182208e-03  -2.0292248740161603e-03  -1.7798371608339027e-03  -1.5138563965259729e-03  -1.2324533814165081e-03  -9.3692195924088514e-04  -6.2868523253239766e-04  -3.0930201285548161e-04  1.9526486605168773e-05  3.5594970837433309e-04  6.9796054999031725e-04  1.0433878971122792e-03  1.3898888820299789e-03  1.7349408589369254e-03  2.0758330870844061e-03  2.4096581126852919e-03  2.7333028401797179e-03  3.0434392832117832e-03  3.3365149853963709e-03  3.6087431006781132e-03  3.8560921227965505e-03  4.0742752530856206e-03  4.2587393955125490e-03  4.4046537676237186e-03  4.5068981154848088e-03  4.5600505213413463e-03  4.5583747888237446e-03  4.4958074033721405e-03  4.3659440163920432e-03  4.1620255818799138e-03  3.8769236058397716e-03  3.5031264395538404e-03  3.0327194075846363e-03  2.4573853626835029e-03  1.7683272628567798e-03  9.5647654876293380e-04  1.1642317929245176e-05  -1.7975771913482145e-06  -4.4707799625096100e-04  -8.7034829395536933e-04  -1.2709359889540490e-03  -1.6482321492933179e-03  -2.0016405468817533e-03  -2.3305943749673454e-03  -2.6345549116408309e-03  -2.9130151932722959e-03  -3.1655024916581597e-03  -3.3915812716931561e-03  -3.5908561835953172e-03  -3.7629752155443653e-03  -3.9076329787792385e-03  -4.0245741387996735e-03  -4.1135969952988084e-03  -4.1745572166099658e-03  -4.2073717337944632e-03  -4.2120227998743258e-03  -4.1885622198166847e-03  -4.1371157570598517e-03  -4.0578877225384870e-03  -3.9511657523417006e-03  -3.8173257803203495e-03  -3.6568372121451600e-03  -3.4702683075081607e-03  -3.2582917773586180e-03  -3.0216906032637550e-03  -2.7613640861947936e-03  -2.4783341322510439e-03  -2.1737517830536686e-03  -1.8489039987659120e-03  -1.5052207019270035e-03  -1.1442820905250418e-03  -7.6782622897564746e-04  -3.7775692592391678e-04  2.3848091958695093e-05  4.3472870074739945e-04  8.5243358490419007e-04  1.2743111178056862e-03  1.6974999068984648e-03  2.1189189929311748e-03  2.5352576924154401e-03  2.9429650721636714e-03  3.3382390444386782e-03  3.7170150709288910e-03  4.0749544634325991e-03  4.4074322687968999e-03  4.7095247253046129e-03  4.9759962773534205e-03  5.2012861348767342e-03  5.3794943636653325e-03  5.5043674920402163e-03  5.5692836201072663e-03  5.5672370130577485e-03  5.4908221756776125e-03  5.3322173451706830e-03  5.0831675595590367e-03  4.7349666424433565e-03  4.2784404628449305e-03  3.7039226647424049e-03  3.0012553457409441e-03  2.1596944968845619e-03  1.1681645014983981e-03  1.4219002431654676e-05  -2.1398576494191695e-06  -5.3220706143070030e-04  -1.0360731501801834e-03  -1.5129375938892657e-03  -1.9620755125672224e-03  -2.3827771490344731e-03  -2.7743677696822826e-03  -3.1362060734380611e-03  -3.4676885646859400e-03  -3.7682525020795803e-03  -4.0373794193907667e-03  -4.2745986874864542e-03  -4.4794912672658565e-03  -4.6516936202784815e-03  -4.7909017932667728e-03  -4.8968756797602717e-03  -4.9694434656056890e-03  -5.0085062645361987e-03  -5.0140429503313993e-03  -4.9861151922425996e-03  -4.9248727005758259e-03  -4.8305586895242159e-03  -4.7035155645513121e-03  -4.5441908418445724e-03  -4.3531433075779278e-03  -4.1310494249506349e-03  -3.8787099972055175e-03  -3.5970570950665565e-03  -3.2871612572870535e-03  -2.9502389732509984e-03  -2.5876604568320148e-03  -2.2009577209814906e-03  -1.7918329627925182e-03  -1.3621672690692246e-03  -9.1402965271885587e-04  -4.4968643058216110e-04  2.8389046379375040e-05  5.1750629930789427e-04  1.0147472525346090e-03  1.5169553776468460e-03  2.0207244383228799e-03  2.5223868233750792e-03  3.0180014550882052e-03  3.5033412595779205e-03  3.9738801855215911e-03  4.4247797572315884e-03  4.8508751476477926e-03  5.2466607564235161e-03  5.6062752778602495e-03  5.9234862430298371e-03  6.1916740199540318e-03  6.4038152553639689e-03  6.5524657407193950e-03  6.6297426860960490e-03  6.6273063798738220e-03  6.5363412308512793e-03  6.3475361179054354e-03  6.0510642344323564e-03  5.6365616427483398e-03  5.0931073465273402e-03  4.4091943986337093e-03  3.5727307097873418e-03  2.5709264813599899e-03  1.3905971665032298e-03  1.6926472506771692e-05  -2.4947074762369774e-06  -6.2046227285977894e-04  -1.2078838260638249e-03  -1.7638260861413001e-03  -2.2874439671600622e-03  -2.7779100137849226e-03  -3.2344376022137356e-03  -3.6562790852579141e-03  -4.0427308904320966e-03  -4.3931369577530832e-03  -4.7068928444457944e-03  -4.9834498775943340e-03  -5.2223195294219373e-03  -5.4230779763996409e-03  -5.5853708611219542e-03  -5.7089182605944925e-03  -5.7935198689599374e-03  -5.8390604017773380e-03  -5.8455152294932438e-03  -5.8129562478854129e-03  -5.7415579935149843e-03  -5.6316040124543216e-03  -5.4834934908031038e-03  -5.2977481557583599e-03  -5.0750194562608191e-03  -4.8160960325058857e-03  -4.5219114838820230e-03  -4.1935524451770338e-03  -3.8322669811835844e-03  -3.4394733101303513e-03  -3.0167688666691722e-03  -2.5659397154608309e-03  -2.0889703267223444e-03  -1.5880537254288956e-03  -1.0656020261987440e-03  -5.2425736623730424e-04  3.3096750930455367e-05  6.0332368784479751e-04  1.1830214681474596e-03  1.7685101204201854e-03  2.3558185565860793e-03  2.9406709702320863e-03  3.5184727397985366e-03  4.0842958211596038e-03  4.6328636136841808e-03  5.1585352834212402e-03  5.6552895265950020e-03  6.1167077561257461e-03  6.5359566934037935e-03  6.9057703470587241e-03  7.2184313599175350e-03  7.4657517049426456e-03  7.6390527099562816e-03  7.7291443920408593e-03  7.7263040758873396e-03  7.6202542921593661e-03  7.4001398685662554e-03  7.0545044319516598e-03  6.5712654063662754e-03  5.9376907810444858e-03  5.1403654268239070e-03  4.1651920395405538e-03  2.9972599046091163e-03  1.6211980999584325e-03  1.9733367456290021e-05  -2.8583382418776684e-06  -7.1090140449598987e-04  -1.3839460447260328e-03  -2.0209229420368414e-03  -2.6208638299881062e-03  -3.1828206425855419e-03  -3.7058920970540945e-03  -4.1892215685042557e-03  -4.6320029311338788e-03  -5.0334844971133275e-03  -5.3929737195958045e-03  -5.7098419506589398e-03  -5.9835294543270790e-03  -6.2135506302176350e-03  -6.3994994695103242e-03  -6.5410552474156206e-03  -6.6379884613382767e-03  -6.6901670228889697e-03  -6.6975627124947609e-03  -6.6602579055243492e-03  -6.5784525791343041e-03  -6.4524716093093699e-03  -6.2827723678492925e-03  -6.0699526293460622e-03  -5.8147587984887523e-03  -5.5180944683377161e-03  -5.1810293205255768e-03  -4.8048083786584230e-03  -4.3908616265269712e-03  -3.9408140030723540e-03  -3.456495786402047