<?xml version="1.0"?>
<VTKFile type="UnstructuredGrid"  version="0.1"  >
<UnstructuredGrid>
<Piece  NumberOfPoints="16641" NumberOfCells="16384">
<Points>
<DataArray  type="Float64"  NumberOfComponents="3"  format="ascii">0 0 0  0.0078125 0 0  0.015625 0 0  0.0234375 0 0  0.03125 0 0  0.0390625 0 0  0.046875 0 0  0.0546875 0 0  0.0625 0 0  0.0703125 0 0  0.078125 0 0  0.0859375 0 0  0.09375 0 0  0.1015625 0 0  0.109375 0 0  0.1171875 0 0  0.125 0 0  0.1328125 0 0  0.140625 0 0  0.1484375 0 0  0.15625 0 0  0.1640625 0 0  0.171875 0 0  0.1796875 0 0  0.1875 0 0  0.1953125 0 0  0.203125 0 0  0.2109375 0 0  0.21875 0 0  0.2265625 0 0  0.234375 0 0  0.2421875 0 0  0.25 0 0  0.2578125 0 0  0.265625 0 0  0.2734375 0 0  0.28125 0 0  0.2890625 0 0  0.296875 0 0  0.3046875 0 0  0.3125 0 0  0.3203125 0 0  0.328125 0 0  0.3359375 0 0  0.34375 0 0  0.3515625 0 0  0.359375 0 0  0.3671875 0 0  0.375 0 0  0.3828125 0 0  0.390625 0 0  0.3984375 0 0  0.40625 0 0  0.4140625 0 0  0.421875 0 0  0.4296875 0 0  0.4375 0 0  0.4453125 0 0  0.453125 0 0  0.4609375 0 0  0.46875 0 0  0.4765625 0 0  0.484375 0 0  0.4921875 0 0  0.5 0 0  0.5078125 0 0  0.515625 0 0  0.5234375 0 0  0.53125 0 0  0.5390625 0 0  0.546875 0 0  0.5546875 0 0  0.5625 0 0  0.5703125 0 0  0.578125 0 0  0.5859375 0 0  0.59375 0 0  0.6015625 0 0  0.609375 0 0  0.6171875 0 0  0.625 0 0  0.6328125 0 0  0.640625 0 0  0.6484375 0 0  0.65625 0 0  0.6640625 0 0  0.671875 0 0  0.6796875 0 0  0.6875 0 0  0.6953125 0 0  0.703125 0 0  0.7109375 0 0  0.71875 0 0  0.7265625 0 0  0.734375 0 0  0.7421875 0 0  0.75 0 0  0.7578125 0 0  0.765625 0 0  0.7734375 0 0  0.78125 0 0  0.7890625 0 0  0.796875 0 0  0.8046875 0 0  0.8125 0 0  0.8203125 0 0  0.828125 0 0  0.8359375 0 0  0.84375 0 0  0.8515625 0 0  0.859375 0 0  0.8671875 0 0  0.875 0 0  0.8828125 0 0  0.890625 0 0  0.8984375 0 0  0.90625 0 0  0.9140625 0 0  0.921875 0 0  0.9296875 0 0  0.9375 0 0  0.9453125 0 0  0.953125 0 0  0.9609375 0 0  0.96875 0 0  0.9765625 0 0  0.984375 0 0  0.9921875 0 0  1 0 0  0 0.0078125 0  0.0078125 0.0078125 0  0.015625 0.0078125 0  0.0234375 0.0078125 0  0.03125 0.0078125 0  0.0390625 0.0078125 0  0.046875 0.0078125 0  0.0546875 0.0078125 0  0.0625 0.0078125 0  0.0703125 0.0078125 0  0.078125 0.0078125 0  0.0859375 0.0078125 0  0.09375 0.0078125 0  0.1015625 0.0078125 0  0.109375 0.0078125 0  0.1171875 0.0078125 0  0.125 0.0078125 0  0.1328125 0.0078125 0  0.140625 0.0078125 0  0.1484375 0.0078125 0  0.15625 0.0078125 0  0.1640625 0.0078125 0  0.171875 0.0078125 0  0.1796875 0.0078125 0  0.1875 0.0078125 0  0.1953125 0.0078125 0  0.203125 0.0078125 0  0.2109375 0.0078125 0  0.21875 0.0078125 0  0.2265625 0.0078125 0  0.234375 0.0078125 0  0.2421875 0.0078125 0  0.25 0.0078125 0  0.2578125 0.0078125 0  0.265625 0.0078125 0  0.2734375 0.0078125 0  0.28125 0.0078125 0  0.2890625 0.0078125 0  0.296875 0.0078125 0  0.3046875 0.0078125 0  0.3125 0.0078125 0  0.3203125 0.0078125 0  0.328125 0.0078125 0  0.3359375 0.0078125 0  0.34375 0.0078125 0  0.3515625 0.0078125 0  0.359375 0.0078125 0  0.3671875 0.0078125 0  0.375 0.0078125 0  0.3828125 0.0078125 0  0.390625 0.0078125 0  0.3984375 0.0078125 0  0.40625 0.0078125 0  0.4140625 0.0078125 0  0.421875 0.0078125 0  0.4296875 0.0078125 0  0.4375 0.0078125 0  0.4453125 0.0078125 0  0.453125 0.0078125 0  0.4609375 0.0078125 0  0.46875 0.0078125 0  0.4765625 0.0078125 0  0.484375 0.0078125 0  0.4921875 0.0078125 0  0.5 0.0078125 0  0.5078125 0.0078125 0  0.515625 0.0078125 0  0.5234375 0.0078125 0  0.53125 0.0078125 0  0.5390625 0.0078125 0  0.546875 0.0078125 0  0.5546875 0.0078125 0  0.5625 0.0078125 0  0.5703125 0.0078125 0  0.578125 0.0078125 0  0.5859375 0.0078125 0  0.59375 0.0078125 0  0.6015625 0.0078125 0  0.609375 0.0078125 0  0.6171875 0.0078125 0  0.625 0.0078125 0  0.6328125 0.0078125 0  0.640625 0.0078125 0  0.6484375 0.0078125 0  0.65625 0.0078125 0  0.6640625 0.0078125 0  0.671875 0.0078125 0  0.6796875 0.0078125 0  0.6875 0.0078125 0  0.6953125 0.0078125 0  0.703125 0.0078125 0  0.7109375 0.0078125 0  0.71875 0.0078125 0  0.7265625 0.0078125 0  0.734375 0.0078125 0  0.7421875 0.0078125 0  0.75 0.0078125 0  0.7578125 0.0078125 0  0.765625 0.0078125 0  0.7734375 0.0078125 0  0.78125 0.0078125 0  0.7890625 0.0078125 0  0.796875 0.0078125 0  0.8046875 0.0078125 0  0.8125 0.0078125 0  0.8203125 0.0078125 0  0.828125 0.0078125 0  0.8359375 0.0078125 0  0.84375 0.0078125 0  0.8515625 0.0078125 0  0.859375 0.0078125 0  0.8671875 0.0078125 0  0.875 0.0078125 0  0.8828125 0.0078125 0  0.890625 0.0078125 0  0.8984375 0.0078125 0  0.90625 0.0078125 0  0.9140625 0.0078125 0  0.921875 0.0078125 0  0.9296875 0.0078125 0  0.9375 0.0078125 0  0.9453125 0.0078125 0  0.953125 0.0078125 0  0.9609375 0.0078125 0  0.96875 0.0078125 0  0.9765625 0.0078125 0  0.984375 0.0078125 0  0.9921875 0.0078125 0  1 0.0078125 0  0 0.015625 0  0.0078125 0.015625 0  0.015625 0.015625 0  0.0234375 0.015625 0  0.03125 0.015625 0  0.0390625 0.015625 0  0.046875 0.015625 0  0.0546875 0.015625 0  0.0625 0.015625 0  0.0703125 0.015625 0  0.078125 0.015625 0  0.0859375 0.015625 0  0.09375 0.015625 0  0.1015625 0.015625 0  0.109375 0.015625 0  0.1171875 0.015625 0  0.125 0.015625 0  0.1328125 0.015625 0  0.140625 0.015625 0  0.1484375 0.015625 0  0.15625 0.015625 0  0.1640625 0.015625 0  0.171875 0.015625 0  0.1796875 0.015625 0  0.1875 0.015625 0  0.1953125 0.015625 0  0.203125 0.015625 0  0.2109375 0.015625 0  0.21875 0.015625 0  0.2265625 0.015625 0  0.234375 0.015625 0  0.2421875 0.015625 0  0.25 0.015625 0  0.2578125 0.015625 0  0.265625 0.015625 0  0.2734375 0.015625 0  0.28125 0.015625 0  0.2890625 0.015625 0  0.296875 0.015625 0  0.3046875 0.015625 0  0.3125 0.015625 0  0.3203125 0.015625 0  0.328125 0.015625 0  0.3359375 0.015625 0  0.34375 0.015625 0  0.3515625 0.015625 0  0.359375 0.015625 0  0.3671875 0.015625 0  0.375 0.015625 0  0.3828125 0.015625 0  0.390625 0.015625 0  0.3984375 0.015625 0  0.40625 0.015625 0  0.4140625 0.015625 0  0.421875 0.015625 0  0.4296875 0.015625 0  0.4375 0.015625 0  0.4453125 0.015625 0  0.453125 0.015625 0  0.4609375 0.015625 0  0.46875 0.015625 0  0.4765625 0.015625 0  0.484375 0.015625 0  0.4921875 0.015625 0  0.5 0.015625 0  0.5078125 0.015625 0  0.515625 0.015625 0  0.5234375 0.015625 0  0.53125 0.015625 0  0.5390625 0.015625 0  0.546875 0.015625 0  0.5546875 0.015625 0  0.5625 0.015625 0  0.5703125 0.015625 0  0.578125 0.015625 0  0.5859375 0.015625 0  0.59375 0.015625 0  0.6015625 0.015625 0  0.609375 0.015625 0  0.6171875 0.015625 0  0.625 0.015625 0  0.6328125 0.015625 0  0.640625 0.015625 0  0.6484375 0.015625 0  0.65625 0.015625 0  0.6640625 0.015625 0  0.671875 0.015625 0  0.6796875 0.015625 0  0.6875 0.015625 0  0.6953125 0.015625 0  0.703125 0.015625 0  0.7109375 0.015625 0  0.71875 0.015625 0  0.7265625 0.015625 0  0.734375 0.015625 0  0.7421875 0.015625 0  0.75 0.015625 0  0.7578125 0.015625 0  0.765625 0.015625 0  0.7734375 0.015625 0  0.78125 0.015625 0  0.7890625 0.015625 0  0.796875 0.015625 0  0.8046875 0.015625 0  0.8125 0.015625 0  0.8203125 0.015625 0  0.828125 0.015625 0  0.8359375 0.015625 0  0.84375 0.015625 0  0.8515625 0.015625 0  0.859375 0.015625 0  0.8671875 0.015625 0  0.875 0.015625 0  0.8828125 0.015625 0  0.890625 0.015625 0  0.8984375 0.015625 0  0.90625 0.015625 0  0.9140625 0.015625 0  0.921875 0.015625 0  0.9296875 0.015625 0  0.9375 0.015625 0  0.9453125 0.015625 0  0.953125 0.015625 0  0.9609375 0.015625 0  0.96875 0.015625 0  0.9765625 0.015625 0  0.984375 0.015625 0  0.9921875 0.015625 0  1 0.015625 0  0 0.0234375 0  0.0078125 0.0234375 0  0.015625 0.0234375 0  0.0234375 0.0234375 0  0.03125 0.0234375 0  0.0390625 0.0234375 0  0.046875 0.0234375 0  0.0546875 0.0234375 0  0.0625 0.0234375 0  0.0703125 0.0234375 0  0.078125 0.0234375 0  0.0859375 0.0234375 0  0.09375 0.0234375 0  0.1015625 0.0234375 0  0.109375 0.0234375 0  0.1171875 0.0234375 0  0.125 0.0234375 0  0.1328125 0.0234375 0  0.140625 0.0234375 0  0.1484375 0.0234375 0  0.15625 0.0234375 0  0.1640625 0.0234375 0  0.171875 0.0234375 0  0.1796875 0.0234375 0  0.1875 0.0234375 0  0.1953125 0.0234375 0  0.203125 0.0234375 0  0.2109375 0.0234375 0  0.21875 0.0234375 0  0.2265625 0.0234375 0  0.234375 0.0234375 0  0.2421875 0.0234375 0  0.25 0.0234375 0  0.2578125 0.0234375 0  0.265625 0.0234375 0  0.2734375 0.0234375 0  0.28125 0.0234375 0  0.2890625 0.0234375 0  0.296875 0.0234375 0  0.3046875 0.0234375 0  0.3125 0.0234375 0  0.3203125 0.0234375 0  0.328125 0.0234375 0  0.3359375 0.0234375 0  0.34375 0.0234375 0  0.3515625 0.0234375 0  0.359375 0.0234375 0  0.3671875 0.0234375 0  0.375 0.0234375 0  0.3828125 0.0234375 0  0.390625 0.0234375 0  0.3984375 0.0234375 0  0.40625 0.0234375 0  0.4140625 0.0234375 0  0.421875 0.0234375 0  0.4296875 0.0234375 0  0.4375 0.0234375 0  0.4453125 0.0234375 0  0.453125 0.0234375 0  0.4609375 0.0234375 0  0.46875 0.0234375 0  0.4765625 0.0234375 0  0.484375 0.0234375 0  0.4921875 0.0234375 0  0.5 0.0234375 0  0.5078125 0.0234375 0  0.515625 0.0234375 0  0.5234375 0.0234375 0  0.53125 0.0234375 0  0.5390625 0.0234375 0  0.546875 0.0234375 0  0.5546875 0.0234375 0  0.5625 0.0234375 0  0.5703125 0.0234375 0  0.578125 0.0234375 0  0.5859375 0.0234375 0  0.59375 0.0234375 0  0.6015625 0.0234375 0  0.609375 0.0234375 0  0.6171875 0.0234375 0  0.625 0.0234375 0  0.6328125 0.0234375 0  0.640625 0.0234375 0  0.6484375 0.0234375 0  0.65625 0.0234375 0  0.6640625 0.0234375 0  0.671875 0.0234375 0  0.6796875 0.0234375 0  0.6875 0.0234375 0  0.6953125 0.0234375 0  0.703125 0.0234375 0  0.7109375 0.0234375 0  0.71875 0.0234375 0  0.7265625 0.0234375 0  0.734375 0.0234375 0  0.7421875 0.0234375 0  0.75 0.0234375 0  0.7578125 0.0234375 0  0.765625 0.0234375 0  0.7734375 0.0234375 0  0.78125 0.0234375 0  0.7890625 0.0234375 0  0.796875 0.0234375 0  0.8046875 0.0234375 0  0.8125 0.0234375 0  0.8203125 0.0234375 0  0.828125 0.0234375 0  0.8359375 0.0234375 0  0.84375 0.0234375 0  0.8515625 0.0234375 0  0.859375 0.0234375 0  0.8671
[...]
<PointData  Scalars="v_sol"> 
<DataArray  type="Float64"  Name="v_sol"  format="ascii">-1.9990747702764972e-06  1.1726964772047453e-06  1.3255195158838027e-05  2.5869348317995251e-05  3.6301184220109142e-05  4.3796330552812273e-05  4.8122507055535110e-05  4.9406505820519084e-05  4.7968463098567407e-05  4.4311964697574899e-05  3.9047497069151994e-05  3.2836793905638247e-05  2.6323019477370036e-05  2.0076524781010336e-05  1.4551914977368926e-05  1.0063445024598219e-05  6.7755379423101940e-06  4.7070571463702055e-06  3.7459439114459969e-06  3.6721783891850585e-06  4.1872618289526069e-06  4.9486736626768125e-06  5.6068409965601762e-06  5.8407714746962853e-06  5.3872457105156854e-06  4.0584189949874177e-06  1.7444237219414788e-06  -1.5990619086610770e-06  -5.9743672259207485e-06  -1.1369576079193462e-05  -1.7782737129979387e-05  -2.5236575958133776e-05  -3.3781345608333870e-05  -4.3487349593636651e-05  -5.4431307173281549e-05  -6.6681288815747096e-05  -8.0283667030940048e-05  -9.5253450785482121e-05  -1.1156764050725856e-04  -1.2916051423777112e-04  -1.4791995763877418e-04  -1.6768458202365386e-04  -1.8824192131050690e-04  -2.0932823398722144e-04  -2.3063037278450894e-04  -2.5178997686499616e-04  -2.7240998965600443e-04  -2.9206329429947825e-04  -3.1030304960801973e-04  -3.2667417266150678e-04  -3.4072531322420498e-04  -3.5202062937562918e-04  -3.6015074431388055e-04  -3.6474232371467788e-04  -3.6546595601002796e-04  -3.6204214593818610e-04  -3.5424547133272930e-04  -3.4190715567453546e-04  -3.2491640162411533e-04  -3.0322099258204692e-04  -2.7682764713739028e-04  -2.4580261548312545e-04  -2.1027294666359068e-04  -1.7042868199010857e-04  -1.2652613166198558e-04  -7.8892174117549388e-05  -2.7929325283927814e-05  2.5878852600366639e-05  8.1962669797016203e-05  1.3966234475989851e-04  1.9822613580075727e-04  2.5681161282636525e-04  3.1449112814178442e-04  3.7026248481171085e-04  4.2306557980466747e-04  4.7180552348484103e-04  5.1538229399558102e-04  5.5272643769283176e-04  5.8283966962995363e-04  6.0483865460515839e-04  6.1799954933986455e-04  6.2180042255654221e-04  6.1595840241777358e-04  6.0045828923141475e-04  5.7556977456478065e-04  5.4185097703178845e-04  5.0013700621106953e-04  4.5151344153976028e-04  3.9727587588961165e-04  3.3887793651308243e-04  2.7787116348762384e-04  2.1584075574853219e-04  1.5434138344217892e-04  9.4836981399664834e-05  3.8647790516229006e-05  -1.3092953089533385e-05  -5.9471223909539510e-05  -9.9812685768990679e-05  -1.3369146742364633e-04  -1.6092770822787240e-04  -1.8157464191133590e-04  -1.9589627247550243e-04  -2.0433699575446071e-04  -2.0748492218756594e-04  -2.0603113118810519e-04  -2.0072742227520636e-04  -1.9234533464052456e-04  -1.8163908409483278e-04  -1.6931462110739441e-04  -1.5600633937960695e-04  -1.4226211569305200e-04  -1.2853652774059152e-04  -1.1519131170976508e-04  -1.0250140240496644e-04  -9.0664324114181835e-05  -7.9810159026282265e-05  -7.0009299338362542e-05  -6.1275282468094595e-05  -5.3561723473619003e-05  -4.6753116063928445e-05  -4.0654130574427167e-05  -3.4980610949813093e-05  -2.9367483220659530e-05  -2.3400524570700022e-05  -1.6712846760654671e-05  -9.2001460321562415e-06  -1.4747222909024751e-06  3.9279807163037116e-06  1.6805865938917752e-06  1.1788476448644580e-05  1.1514826349133621e-07  -6.5929242018375798e-05  -1.3052497832429793e-04  -1.8382549202112052e-04  -2.2172815665626172e-04  -2.4353340680989140e-04  -2.4982813769429266e-04  -2.4231960073782045e-04  -2.2356567282355271e-04  -1.9669924185463934e-04  -1.6509278419200410e-04  -1.3202442600111777e-04  -1.0038994513018321e-04  -7.2491278464234088e-05  -4.9911661332670318e-05  -3.3471960888761651e-05  -2.3254442355839873e-05  -1.8678958669254217e-05  -1.8619810032014476e-05  -2.1555224998777249e-05  -2.5741983901193442e-05  -2.9403397137646651e-05  -3.0911165322318731e-05  -2.8934849086117698e-05  -2.2532017904926108e-05  -1.1161040363743556e-05  5.3839400902559663e-06  2.7095576925703483e-05  5.3897321758379708e-05  8.5768534461369838e-05  1.2281977402391514e-04  1.6530629713163298e-04  2.1358823652358223e-04  2.6805958721729770e-04  3.2907076614163683e-04  3.9686249730289325e-04  4.7151770790311478e-04  5.5292909993339084e-04  6.4077642701794327e-04  7.3450876088639950e-04  8.3333045155869025e-04  9.3619232594388264e-04  1.0417908221596950e-03  1.1485773710669706e-03  1.2547792106662426e-03  1.3584315716845599e-03  1.4574200910842114e-03  1.5495313499064194e-03  1.6325087702841422e-03  1.7041106587425922e-03  1.7621670844672243e-03  1.8046326048051513e-03  1.8296322571723926e-03  1.8354993231437513e-03  1.8208040908981257e-03  1.7843739221844338e-03  1.7253059274450083e-03  1.6429740383025154e-03  1.5370329152234036e-03  1.4074211632802425e-03  1.2543663523976272e-03  1.0783939032034111e-03  8.8034128071066454e-04  6.6137836252063873e-04  4.2303368110357161e-04  1.6722540573678947e-04  -1.0370516104218214e-04  -3.8696096641475009e-04  -6.7926185213542853e-04  -9.7682767685018526e-04  -1.2753778581056975e-03  -1.5701535910750044e-03  -1.8559685516426649e-03  -2.1272931315884330e-03  -2.3783755671574003e-03  -2.6034009090210950e-03  -2.7966854958052520e-03  -2.9529007413290746e-03  -3.0673163302756793e-03  -3.1360486919091582e-03  -3.1562977126854135e-03  -3.1265528759192407e-03  -3.0467496994076920e-03  -2.9183598438675021e-03  -2.7444021931793167e-03  -2.5293686073853991e-03  -2.2790653953064094e-03  -2.0003791473420149e-03  -1.7009827827579329e-03  -1.3890027487732191e-03  -1.0726710710008999e-03  -7.5998592400655337e-04  -4.5840170296218352e-04  -1.7456487521944818e-04  8.5893605287489007e-05  3.1850420257421592e-04  5.2004248921374608e-04  6.8855333677137972e-04  8.2332025679712902e-04  9.2478538124570278e-04  9.9442640327350278e-04  1.0345975182909225e-03  1.0483429210052543e-03  1.0391932755690525e-03  1.0109570712665062e-03  9.6751975137753399e-04  9.1266295686153994e-04  8.4991427904727141e-04  7.8243473924580252e-04  7.1294722972054729e-04  6.4370518586051204e-04  5.7649691221243571e-04  5.1267752171861840e-04  4.5321733305429270e-04  3.9875309716509418e-04  3.4962731850682566e-04  3.0590293804272432e-04  2.6734556397733765e-04  2.3337702365151241e-04  2.0301180470888846e-04  1.7481681876621466e-04  1.4691613476426342e-04  1.1718986322421268e-04  8.3618715779974393e-05  4.5540109831921974e-05  5.5402004468205522e-06  -2.4007651349370160e-05  -6.9663580254159410e-06  2.2254997910717880e-05  -9.3314976969149658e-05  -3.2781782606605551e-04  -5.6486034883192573e-04  -7.6453704911008398e-04  -9.0927254534491531e-04  -9.9343620361413238e-04  -1.0180566965459403e-03  -9.8894599971727551e-04  -9.1548503540050258e-04  -8.0938207079830579e-04  -6.8338109547499048e-04  -5.4999536831288123e-04  -4.2040995734280627e-04  -3.0364534220362569e-04  -2.0602548131338624e-04  -1.3094466393845733e-04  -7.8899104595448464e-05  -4.7739967837542536e-05  -3.3108312839121479e-05  -2.9017613434147625e-05  -2.8545358688854116e-05  -2.4577306268577304e-05  -1.0521875561383070e-05  1.9107541646592343e-05  6.8340880200823401e-05  1.3969163541074046e-04  2.3438433182389797e-04  3.5278996507983007e-04  4.9493516745803513e-04  6.6093842076395647e-04  8.5126251787605203e-04  1.0667415743841205e-03  1.3084141550537619e-03  1.5772425699945513e-03  1.8738077956496071e-03  2.1980453668640726e-03  2.5490498155149922e-03  2.9249447230433696e-03  3.3228030750485026e-03  3.7386061177846239e-03  4.1672388703664397e-03  4.6025279731620721e-03  5.0373289782547183e-03  5.4636666811695963e-03  5.8729261753816004e-03  6.2560863041094339e-03  6.6039824100411907e-03  6.9075822111364414e-03  7.1582570774979077e-03  7.3480318570387912e-03  7.4697988441513744e-03  7.5174854440391006e-03  7.4861699062297258e-03  7.3721449725732673e-03  7.1729337064352638e-03  6.8872655292186282e-03  6.5150237260596508e-03  6.0571759429343640e-03  5.5156997862181520e-03  4.8935144644524703e-03  4.1944269879704930e-03  3.4230992467801325e-03  2.5850393858396908e-03  1.6866178344502199e-03  7.3510556009226196e-04  -2.6127067950832382e-04  -1.2932641029843627e-03  -2.3505446657249747e-03  -3.4216488942284363e-03  -4.4939565158581170e-03  -5.5537084730193885e-03  -6.5860806227659467e-03  -7.5753267857435989e-03  -8.5050022340344787e-03  -9.3582749133598216e-03  -1.0118326389840743e-02  -1.0768837476568354e-02  -1.1294545258018620e-02  -1.1681849848902319e-02  -1.1919440524031729e-02  -1.1998903653459989e-02  -1.1915270319017552e-02  -1.1667459979708536e-02  -1.1258580028949689e-02  -1.0696048281075673e-02  -9.9915176490069993e-03  -9.1605969732674562e-03  -8.2223781336818232e-03  -7.1987953852895824e-03  -6.1138553911968515e-03  -4.9927845589560066e-03  -3.8611430094171182e-03  -2.7439516916878477e-03  -1.6648721130511112e-03  -6.4546889666458162e-04  2.9542390376842789e-04  1.1422189847821423e-03  1.8829644635334414e-03  2.5095955875931862e-03  3.0180390798664534e-03  3.4081592662971944e-03  3.6835383046426016e-03  3.8510910503174725e-03  3.9205283339868516e-03  3.9036986513036245e-03  3.8138537030256306e-03  3.6648941774814533e-03  3.4706553119874858e-03  3.2442862213498992e-03  2.9977636440458037e-03  2.7415624266005703e-03  2.4844843215916452e-03  2.2336259278454562e-03  1.9944480270459694e-03  1.7708942660058101e-03  1.5655009403672958e-03  1.3794457049903799e-03  1.2125056682299926e-03  1.0629331665784750e-03  9.2731024392898387e-04  8.0050058540901878e-04  6.7588938084589306e-04  5.4620204978985982e-04  4.0535058591428217e-04  2.5214478226001852e-04  9.7683448920292507e-05  -2.3228025827253976e-05  -1.9407128776151288e-05  2.2733434304332868e-05  -3.1591819187638587e-04  -7.8263810042561433e-04  -1.2421920115098840e-03  -1.6290967331625296e-03  -1.9102466250155831e-03  -2.0726806085886985e-03  -2.1171017823969959e-03  -2.0541618969930476e-03  -1.9018690112728200e-03  -1.6829789366388361e-03  -1.4224011917932798e-03  -1.1447135351429635e-03  -8.7200847303990853e-04  -6.2222254824757415e-04  -4.0802811161398813e-04  -2.3629134185512040e-04  -1.0805347067371588e-04  -1.8972351194726973e-05  3.9840399607242612e-05  8.0653936802566268e-05  1.1771100343176869e-04  1.6570714126566295e-04  2.3833532892685689e-04  3.4710741935857909e-04  5.0064648755080842e-04  7.0456138406318374e-04  9.6187934390766234e-04  1.2738666968023081e-03  1.6409668086685345e-03  2.0635704762697596e-03  2.5424140182696876e-03  3.0785402137178917e-03  3.6728982131005298e-03  4.3257460947306366e-03  5.0360305928870107e-03  5.8008685924964207e-03  6.6151844203409622e-03  7.4715037301297813e-03  8.3598847450361488e-03  9.2679730859405608e-03  1.0181179097892441e-02  1.1082981771351244e-02  1.1955357919138291e-02  1.2779322176538573e-02  1.3535549047863494e-02  1.4205036573436634e-02  1.4769765137796771e-02  1.5213304601076031e-02  1.5521328529262402e-02  1.5682004532878286e-02  1.5686243378957247e-02  1.5527803431478339e-02  1.5203260722405014e-02  1.4711865996030126e-02  1.4055316517081529e-02  1.3237474713287713e-02  1.2264065065716366e-02  1.1142377648825721e-02  9.8810015432207066e-03  8.4896057569272699e-03  6.9787790091583443e-03  5.3599325745233373e-03  3.6452665241471336e-03  1.8477943354706090e-03  -1.8583504376157500e-05  -1.9389686796375341e-03  -3.8973323747630195e-03  -5.8763779960102694e-03  -7.8574189348751267e-03  -9.8202923399308174e-03  -1.1743330913624445e-02  -1.3603415255052887e-02  -1.5376127389837979e-02  -1.7036023706659152e-02  -1.8557040523829914e-02  -1.9913038113351503e-02  -2.1078479344747821e-02  -2.2029227160616636e-02  -2.2743432437399531e-02  -2.3202470223676237e-02  -2.3391870788011481e-02  -2.3302183704067701e-02  -2.2929709944924416e-02  -2.2277040471826163e-02  -2.1353350032925530e-02  -2.0174412262634091e-02  -1.8762323934495815e-02  -1.7144950009728765e-02  -1.5355124163000607e-02  -1.3429657064109833e-02  -1.1408215033635791e-02  -9.3321329450566180e-03  -7.2432179730568874e-03  -5.1825867310546494e-03  -3.1895619269359850e-03  -1.3006398761926889e-03  4.5146835000491834e-04  2.0387184737441309e-03  3.4385232678686957e-03  4.6344197028311204e-03  5.6165620769028767e-03  6.3819770001418974e-03  6.9345161981747630e-03  7.2844609444813685e-03  7.4477669849864750e-03  7.4449850540873547e-03  7.2999393009170735e-03  7.0382826723357304e-03  6.6860654086484256e-03  6.2684465041186205e-03  5.8086501514497558e-03  5.3272253907585025e-03  4.8416154781497521e-03  4.3659922366259922e-03  3.9112681405405096e-03  3.4851749349610853e-03  3.0923021313603999e-03  2.7340277572611232e-03  2.4083497623236297e-03  2.1097238199572479e-03  1.8291391079324015e-03  1.5547586993835121e-03  1.2736701361681837e-03  9.7530749680928871e-04  6.5782640647937102e-04  3.3866698392846718e-04  6.9422267684918394e-05  -2.6031231850195789e-05  1.8305737030255279e-05  -6.5146572682447186e-04  -1.4131279728104189e-03  -2.1323740292761408e-03  -2.7290526662392604e-03  -3.1578473316849777e-03  -3.3994734716292813e-03  -3.4548960804338426e-03  -3.3406275813390486e-03  -3.0847236959086846e-03  -2.7226392563749280e-03  -2.2931236120749903e-03  -1.8343575101651181e-03  -1.3806259002901030e-03  -9.5972693786200349e-04  -5.9122036073784405e-04  -2.8552655344541214e-04  -4.3831137777441678e-05  1.4127478654629469e-04  2.8449749559113094e-04  4.0598329535662724e-04  5.2904509658143752e-04  6.7769583997553604e-04  8.7429688493854203e-04  1.1376738451809522e-03  1.4820083415604955e-03  1.9166623794245306e-03  2.4468624950025890e-03  3.0749393666395248e-03  3.8016757468620523e-03  4.6273226703672067e-03  5.5519986759578806e-03  6.5754216783649585e-03  7.6961385388001052e-03  8.9105329893003592e-03  1.0211885836032867e-02  1.1589671048761234e-02  1.3029164216249856e-02  1.4511366803331257e-02  1.6013223301814653e-02  1.7508109844855430e-02  1.8966575054022619e-02  2.0357303528111860e-02  2.1648250591205415e-02  2.2807872513794403e-02  2.3806360034151462e-02  2.4616777729209376e-02  2.5216021595795071e-02  2.5585527846465554e-02  2.5711693722360859e-02  2.5586003758161995e-02  2.5204882999845326e-02  2.4569322529271163e-02  2.3684337301484660e-02  2.2558322676241759e-02  2.1202373762300972e-02  1.9629623598673731e-02  1.7854645534724767e-02  1.5892951310184689e-02  1.3760603997974062e-02  1.1473953659822980e-02  9.0494956749283331e-03  6.5038428431564614e-03  3.8537990355704882e-03  1.1165188435190686e-03  -1.6902657105275054e-03  -4.5479715288724758e-03  -7.4368657294026329e-03  -1.0335765282777342e-02  -1.3221761221166205e-02  -1.6069994213471248e-02  -1.8853511128973190e-02  -2.1543232496401849e-02  -2.4108060291073194e-02  -2.6515152931684896e-02  -2.8730388913806925e-02  -3.0719031373989500e-02  -3.2446593300788244e-02  -3.3879886739123476e-02  -3.4988221004691934e-02  -3.5744694342322844e-02  -3.6127505103640760e-02  -3.6121194833404528e-02  -3.5717727769933191e-02  -3.4917315027353027e-02  -3.3728905213554400e-02  -3.2170289244276930e-02  -3.0267800796553251e-02  -2.8055631869877251e-02  -2.5574820427410442e-02  -2.2871995793865847e-02  -1.9997983616924186e-02  -1.7006372133570608e-02  -1.3952124504669074e-02  -1.0890291703725472e-02  -7.8748428851303457e-03  -4.9575937495526809e-03  -2.1871868482786711e-03  3.9193095846059406e-04  2.7405751773380694e-03  4.8259400886795202e-03  6.6227194559454880e-03  8.1141312044639979e-03  9.2927030843205985e-03  1.0160661446976253e-02  1.0729787556780416e-02  1.1020666478200904e-02  1.1061341173362235e-02  1.0885479219440492e-02  1.0530238101203970e-02  1.0034058350125146e-02  9.4346120902871911e-03  8.7670891184852395e-03  8.0629247798993352e-03  7.3489802554350002e-03  6.6470969124915779e-03  5.9738832167115872e-03  5.3405758445562628e-03  4.7528595038232565e-03  4.2106341036551283e-03  3.7078641885161701e-03  3.2328212065417059e-03  2.7691671065698865e-03  2.2985497463122169e-03  1.8053313495966182e-03  1.2847082904213552e-03  7.5487316516105539e-04  2.7331642692822575e-04  -2.7132467966469832e-05  1.1236299280266846e-05  -1.0794646640144240e-03  -2.1938140828570416e-03  -3.2043656481744115e-03  -4.0241718197310088e-03  -4.6005302262725574e-03  -4.9108727576818124e-03  -4.9586284309824803e-03  -4.7681315466213403e-03  -4.3793173626586364e-03  -3.8419516226991350e-03  -3.2098908487349369e-03  -2.5357581112885178e-03  -1.8664173349943313e-03  -1.2394783943750108e-03  -6.8093718787814637e-04  -2.0395412103813417e-04  1.9127716480154871e-04  5.1663686973881071e-04  7.9423984222815307e-04  1.0537681595950803e-03  1.3291843288107869e-03  1.6551680891795551e-03  2.0637502326759250e-03  2.5816687610645140e-03  3.2288787006332052e-03  4.0183918363336912e-03  4.9572700434646006e-03  6.0482729396403260e-03  7.2915013114795953e-03  8.6854529479345952e-03  1.0227183055240405e-02  1.1911612539890683e-02  1.3730304932916054e-02  1.5670141489118852e-02  1.7712264763908383e-02  1.9831512072597757e-02  2.1996414297979650e-02  2.4169744251953659e-02  2.6309559067537739e-02  2.8370661801752746e-02  3.0306383780232333e-02  3.2070556806173128e-02  3.3619515642552618e-02  3.4913958924116015e-02  3.5920509196466693e-02  3.6612847838284786e-02  3.6972353660006334e-02  3.6988232713511364e-02  3.6657181478755609e-02  3.5982668869381944e-02  3.4973948504419441e-02  3.3644920526797115e-02  3.2012954333609428e-02  3.0097767436421900e-02  2.7920429592604303e-02  2.5502537480036756e-02  2.2865583201362012e-02  2.0030520015199272e-02  1.7017516584778045e-02  1.3845881961287556e-02  1.0534139625534922e-02  7.1002259069809365e-03  3.5617896354485814e-03  -6.3429636065344985e-05  -3.7571675166047144e-03  -7.5001659725631919e-03  -1.1271692210902882e-02  -1.5049068872776267e-02  -1.8807242404779229e-02  -2.2518418623707705e-02  -2.6151798945232965e-02  -2.9673453211725657e-02  -3.3046366773879461e-02  -3.6230698861994863e-02  -3.9184284739328536e-02  -4.1863405798607992e-02  -4.4223836290123157e-02  -4.6222156199695288e-02  -4.7817294848501099e-02  -4.8972240222097604e-02  -4.9655821134140972e-02  -4.9844444169375071e-02  -4.9523650365347643e-02  -4.8689353992005344e-02  -4.7348639125256275e-02  -4.5520022033355402e-02  -4.3233135653587648e-02  -4.0527851580931362e-02  -3.7452917148036446e-02  -3.4064238831328433e-02  -3.0422979151690083e-02  -2.6593644397700754e-02  -2.2642321391202508e-02  -1.8635175447154349e-02  -1.4637255717934141e-02  -1.0711581198428554e-02  -6.9184141659752937e-03  -3.3145830810273375e-03  4.7294103622903137e-05  3.1198063611983062e-03  5.8620181257138968e-03  8.2409663618746784e-03  1.0233238590372158e-02  1.1826398285092476e-02  1.3019982002958484e-02  1.3825812731991247e-02  1.4267459171291109e-02  1.4378804659468013e-02  1.4201840994321448e-02  1.3783933340555348e-02  1.3174879828461062e-02  1.2424095473610544e-02  1.1578185477203448e-02  1.0679056635014474e-02  9.7625785760654029e-03  8.8576870511907282e-03  7.9857574854098941e-03  7.1600957243175842e-03  6.3855028221145443e-03  5.6580465076193683e-03  4.9653867221631847e-03  4.2881622703236704e-03  3.6031484523092279e-03  2.8887695315115256e-03  2.1340255385528984e-03  1.3510723509816036e-03  5.9114012530237425e-04  -2.3225588211944771e-05  2.8425649394485883e-06  -1.5824081531222059e-03  -3.1008799402885939e-03  -4.4303892731151328e-03  -5.4810750999631334e-03  -6.1970967122344754e-03  -6.5564872164171990e-03  -6.5685778265546363e-03  -6.2685829949813811e-03  -5.7109200684186184e-03  -4.9616632119036689e-03  -4.0910422171675969e-03  -3.1666119523044902e-03  -2.2475703005018343e-03  -1.3804635174403006e-03  -5.9634934228277149e-04  9.0611667350393740e-05  6.8319518412447830e-04  1.1998362142221636e-03  1.6720993074630685e-03  2.1410298944564256e-03  2.6526749824918976e-03  3.2532719275779982e-03  3.9847873728035745e-03  4.8815305302384124e-03  5.9683798987372255e-03  7.2607569745446396e-03  8.7659800626342359e-03  1.0485236445531084e-02  1.2415297624450327e-02  1.4549321635732568e-02  1.6876531580166478e-02  1.9381022755232562e-02  2.2040239058004292e-02  2.4823696180938121e-02  2.7692371601414360e-02  3.0598957041242842e-02  3.3488982885680849e-02  3.6302707969471659e-02  3.8977601475667076e-02  4.1451195302240416e-02  4