<?xml version="1.0"?>
<VTKFile type="UnstructuredGrid"  version="0.1"  >
<UnstructuredGrid>
<Piece  NumberOfPoints="16641" NumberOfCells="16384">
<Points>
<DataArray  type="Float64"  NumberOfComponents="3"  format="ascii">0 0 0  0.0078125 0 0  0.015625 0 0  0.0234375 0 0  0.03125 0 0  0.0390625 0 0  0.046875 0 0  0.0546875 0 0  0.0625 0 0  0.0703125 0 0  0.078125 0 0  0.0859375 0 0  0.09375 0 0  0.1015625 0 0  0.109375 0 0  0.1171875 0 0  0.125 0 0  0.1328125 0 0  0.140625 0 0  0.1484375 0 0  0.15625 0 0  0.1640625 0 0  0.171875 0 0  0.1796875 0 0  0.1875 0 0  0.1953125 0 0  0.203125 0 0  0.2109375 0 0  0.21875 0 0  0.2265625 0 0  0.234375 0 0  0.2421875 0 0  0.25 0 0  0.2578125 0 0  0.265625 0 0  0.2734375 0 0  0.28125 0 0  0.2890625 0 0  0.296875 0 0  0.3046875 0 0  0.3125 0 0  0.3203125 0 0  0.328125 0 0  0.3359375 0 0  0.34375 0 0  0.3515625 0 0  0.359375 0 0  0.3671875 0 0  0.375 0 0  0.3828125 0 0  0.390625 0 0  0.3984375 0 0  0.40625 0 0  0.4140625 0 0  0.421875 0 0  0.4296875 0 0  0.4375 0 0  0.4453125 0 0  0.453125 0 0  0.4609375 0 0  0.46875 0 0  0.4765625 0 0  0.484375 0 0  0.4921875 0 0  0.5 0 0  0.5078125 0 0  0.515625 0 0  0.5234375 0 0  0.53125 0 0  0.5390625 0 0  0.546875 0 0  0.5546875 0 0  0.5625 0 0  0.5703125 0 0  0.578125 0 0  0.5859375 0 0  0.59375 0 0  0.6015625 0 0  0.609375 0 0  0.6171875 0 0  0.625 0 0  0.6328125 0 0  0.640625 0 0  0.6484375 0 0  0.65625 0 0  0.6640625 0 0  0.671875 0 0  0.6796875 0 0  0.6875 0 0  0.6953125 0 0  0.703125 0 0  0.7109375 0 0  0.71875 0 0  0.7265625 0 0  0.734375 0 0  0.7421875 0 0  0.75 0 0  0.7578125 0 0  0.765625 0 0  0.7734375 0 0  0.78125 0 0  0.7890625 0 0  0.796875 0 0  0.8046875 0 0  0.8125 0 0  0.8203125 0 0  0.828125 0 0  0.8359375 0 0  0.84375 0 0  0.8515625 0 0  0.859375 0 0  0.8671875 0 0  0.875 0 0  0.8828125 0 0  0.890625 0 0  0.8984375 0 0  0.90625 0 0  0.9140625 0 0  0.921875 0 0  0.9296875 0 0  0.9375 0 0  0.9453125 0 0  0.953125 0 0  0.9609375 0 0  0.96875 0 0  0.9765625 0 0  0.984375 0 0  0.9921875 0 0  1 0 0  0 0.0078125 0  0.0078125 0.0078125 0  0.015625 0.0078125 0  0.0234375 0.0078125 0  0.03125 0.0078125 0  0.0390625 0.0078125 0  0.046875 0.0078125 0  0.0546875 0.0078125 0  0.0625 0.0078125 0  0.0703125 0.0078125 0  0.078125 0.0078125 0  0.0859375 0.0078125 0  0.09375 0.0078125 0  0.1015625 0.0078125 0  0.109375 0.0078125 0  0.1171875 0.0078125 0  0.125 0.0078125 0  0.1328125 0.0078125 0  0.140625 0.0078125 0  0.1484375 0.0078125 0  0.15625 0.0078125 0  0.1640625 0.0078125 0  0.171875 0.0078125 0  0.1796875 0.0078125 0  0.1875 0.0078125 0  0.1953125 0.0078125 0  0.203125 0.0078125 0  0.2109375 0.0078125 0  0.21875 0.0078125 0  0.2265625 0.0078125 0  0.234375 0.0078125 0  0.2421875 0.0078125 0  0.25 0.0078125 0  0.2578125 0.0078125 0  0.265625 0.0078125 0  0.2734375 0.0078125 0  0.28125 0.0078125 0  0.2890625 0.0078125 0  0.296875 0.0078125 0  0.3046875 0.0078125 0  0.3125 0.0078125 0  0.3203125 0.0078125 0  0.328125 0.0078125 0  0.3359375 0.0078125 0  0.34375 0.0078125 0  0.3515625 0.0078125 0  0.359375 0.0078125 0  0.3671875 0.0078125 0  0.375 0.0078125 0  0.3828125 0.0078125 0  0.390625 0.0078125 0  0.3984375 0.0078125 0  0.40625 0.0078125 0  0.4140625 0.0078125 0  0.421875 0.0078125 0  0.4296875 0.0078125 0  0.4375 0.0078125 0  0.4453125 0.0078125 0  0.453125 0.0078125 0  0.4609375 0.0078125 0  0.46875 0.0078125 0  0.4765625 0.0078125 0  0.484375 0.0078125 0  0.4921875 0.0078125 0  0.5 0.0078125 0  0.5078125 0.0078125 0  0.515625 0.0078125 0  0.5234375 0.0078125 0  0.53125 0.0078125 0  0.5390625 0.0078125 0  0.546875 0.0078125 0  0.5546875 0.0078125 0  0.5625 0.0078125 0  0.5703125 0.0078125 0  0.578125 0.0078125 0  0.5859375 0.0078125 0  0.59375 0.0078125 0  0.6015625 0.0078125 0  0.609375 0.0078125 0  0.6171875 0.0078125 0  0.625 0.0078125 0  0.6328125 0.0078125 0  0.640625 0.0078125 0  0.6484375 0.0078125 0  0.65625 0.0078125 0  0.6640625 0.0078125 0  0.671875 0.0078125 0  0.6796875 0.0078125 0  0.6875 0.0078125 0  0.6953125 0.0078125 0  0.703125 0.0078125 0  0.7109375 0.0078125 0  0.71875 0.0078125 0  0.7265625 0.0078125 0  0.734375 0.0078125 0  0.7421875 0.0078125 0  0.75 0.0078125 0  0.7578125 0.0078125 0  0.765625 0.0078125 0  0.7734375 0.0078125 0  0.78125 0.0078125 0  0.7890625 0.0078125 0  0.796875 0.0078125 0  0.8046875 0.0078125 0  0.8125 0.0078125 0  0.8203125 0.0078125 0  0.828125 0.0078125 0  0.8359375 0.0078125 0  0.84375 0.0078125 0  0.8515625 0.0078125 0  0.859375 0.0078125 0  0.8671875 0.0078125 0  0.875 0.0078125 0  0.8828125 0.0078125 0  0.890625 0.0078125 0  0.8984375 0.0078125 0  0.90625 0.0078125 0  0.9140625 0.0078125 0  0.921875 0.0078125 0  0.9296875 0.0078125 0  0.9375 0.0078125 0  0.9453125 0.0078125 0  0.953125 0.0078125 0  0.9609375 0.0078125 0  0.96875 0.0078125 0  0.9765625 0.0078125 0  0.984375 0.0078125 0  0.9921875 0.0078125 0  1 0.0078125 0  0 0.015625 0  0.0078125 0.015625 0  0.015625 0.015625 0  0.0234375 0.015625 0  0.03125 0.015625 0  0.0390625 0.015625 0  0.046875 0.015625 0  0.0546875 0.015625 0  0.0625 0.015625 0  0.0703125 0.015625 0  0.078125 0.015625 0  0.0859375 0.015625 0  0.09375 0.015625 0  0.1015625 0.015625 0  0.109375 0.015625 0  0.1171875 0.015625 0  0.125 0.015625 0  0.1328125 0.015625 0  0.140625 0.015625 0  0.1484375 0.015625 0  0.15625 0.015625 0  0.1640625 0.015625 0  0.171875 0.015625 0  0.1796875 0.015625 0  0.1875 0.015625 0  0.1953125 0.015625 0  0.203125 0.015625 0  0.2109375 0.015625 0  0.21875 0.015625 0  0.2265625 0.015625 0  0.234375 0.015625 0  0.2421875 0.015625 0  0.25 0.015625 0  0.2578125 0.015625 0  0.265625 0.015625 0  0.2734375 0.015625 0  0.28125 0.015625 0  0.2890625 0.015625 0  0.296875 0.015625 0  0.3046875 0.015625 0  0.3125 0.015625 0  0.3203125 0.015625 0  0.328125 0.015625 0  0.3359375 0.015625 0  0.34375 0.015625 0  0.3515625 0.015625 0  0.359375 0.015625 0  0.3671875 0.015625 0  0.375 0.015625 0  0.3828125 0.015625 0  0.390625 0.015625 0  0.3984375 0.015625 0  0.40625 0.015625 0  0.4140625 0.015625 0  0.421875 0.015625 0  0.4296875 0.015625 0  0.4375 0.015625 0  0.4453125 0.015625 0  0.453125 0.015625 0  0.4609375 0.015625 0  0.46875 0.015625 0  0.4765625 0.015625 0  0.484375 0.015625 0  0.4921875 0.015625 0  0.5 0.015625 0  0.5078125 0.015625 0  0.515625 0.015625 0  0.5234375 0.015625 0  0.53125 0.015625 0  0.5390625 0.015625 0  0.546875 0.015625 0  0.5546875 0.015625 0  0.5625 0.015625 0  0.5703125 0.015625 0  0.578125 0.015625 0  0.5859375 0.015625 0  0.59375 0.015625 0  0.6015625 0.015625 0  0.609375 0.015625 0  0.6171875 0.015625 0  0.625 0.015625 0  0.6328125 0.015625 0  0.640625 0.015625 0  0.6484375 0.015625 0  0.65625 0.015625 0  0.6640625 0.015625 0  0.671875 0.015625 0  0.6796875 0.015625 0  0.6875 0.015625 0  0.6953125 0.015625 0  0.703125 0.015625 0  0.7109375 0.015625 0  0.71875 0.015625 0  0.7265625 0.015625 0  0.734375 0.015625 0  0.7421875 0.015625 0  0.75 0.015625 0  0.7578125 0.015625 0  0.765625 0.015625 0  0.7734375 0.015625 0  0.78125 0.015625 0  0.7890625 0.015625 0  0.796875 0.015625 0  0.8046875 0.015625 0  0.8125 0.015625 0  0.8203125 0.015625 0  0.828125 0.015625 0  0.8359375 0.015625 0  0.84375 0.015625 0  0.8515625 0.015625 0  0.859375 0.015625 0  0.8671875 0.015625 0  0.875 0.015625 0  0.8828125 0.015625 0  0.890625 0.015625 0  0.8984375 0.015625 0  0.90625 0.015625 0  0.9140625 0.015625 0  0.921875 0.015625 0  0.9296875 0.015625 0  0.9375 0.015625 0  0.9453125 0.015625 0  0.953125 0.015625 0  0.9609375 0.015625 0  0.96875 0.015625 0  0.9765625 0.015625 0  0.984375 0.015625 0  0.9921875 0.015625 0  1 0.015625 0  0 0.0234375 0  0.0078125 0.0234375 0  0.015625 0.0234375 0  0.0234375 0.0234375 0  0.03125 0.0234375 0  0.0390625 0.0234375 0  0.046875 0.0234375 0  0.0546875 0.0234375 0  0.0625 0.0234375 0  0.0703125 0.0234375 0  0.078125 0.0234375 0  0.0859375 0.0234375 0  0.09375 0.0234375 0  0.1015625 0.0234375 0  0.109375 0.0234375 0  0.1171875 0.0234375 0  0.125 0.0234375 0  0.1328125 0.0234375 0  0.140625 0.0234375 0  0.1484375 0.0234375 0  0.15625 0.0234375 0  0.1640625 0.0234375 0  0.171875 0.0234375 0  0.1796875 0.0234375 0  0.1875 0.0234375 0  0.1953125 0.0234375 0  0.203125 0.0234375 0  0.2109375 0.0234375 0  0.21875 0.0234375 0  0.2265625 0.0234375 0  0.234375 0.0234375 0  0.2421875 0.0234375 0  0.25 0.0234375 0  0.2578125 0.0234375 0  0.265625 0.0234375 0  0.2734375 0.0234375 0  0.28125 0.0234375 0  0.2890625 0.0234375 0  0.296875 0.0234375 0  0.3046875 0.0234375 0  0.3125 0.0234375 0  0.3203125 0.0234375 0  0.328125 0.0234375 0  0.3359375 0.0234375 0  0.34375 0.0234375 0  0.3515625 0.0234375 0  0.359375 0.0234375 0  0.3671875 0.0234375 0  0.375 0.0234375 0  0.3828125 0.0234375 0  0.390625 0.0234375 0  0.3984375 0.0234375 0  0.40625 0.0234375 0  0.4140625 0.0234375 0  0.421875 0.0234375 0  0.4296875 0.0234375 0  0.4375 0.0234375 0  0.4453125 0.0234375 0  0.453125 0.0234375 0  0.4609375 0.0234375 0  0.46875 0.0234375 0  0.4765625 0.0234375 0  0.484375 0.0234375 0  0.4921875 0.0234375 0  0.5 0.0234375 0  0.5078125 0.0234375 0  0.515625 0.0234375 0  0.5234375 0.0234375 0  0.53125 0.0234375 0  0.5390625 0.0234375 0  0.546875 0.0234375 0  0.5546875 0.0234375 0  0.5625 0.0234375 0  0.5703125 0.0234375 0  0.578125 0.0234375 0  0.5859375 0.0234375 0  0.59375 0.0234375 0  0.6015625 0.0234375 0  0.609375 0.0234375 0  0.6171875 0.0234375 0  0.625 0.0234375 0  0.6328125 0.0234375 0  0.640625 0.0234375 0  0.6484375 0.0234375 0  0.65625 0.0234375 0  0.6640625 0.0234375 0  0.671875 0.0234375 0  0.6796875 0.0234375 0  0.6875 0.0234375 0  0.6953125 0.0234375 0  0.703125 0.0234375 0  0.7109375 0.0234375 0  0.71875 0.0234375 0  0.7265625 0.0234375 0  0.734375 0.0234375 0  0.7421875 0.0234375 0  0.75 0.0234375 0  0.7578125 0.0234375 0  0.765625 0.0234375 0  0.7734375 0.0234375 0  0.78125 0.0234375 0  0.7890625 0.0234375 0  0.796875 0.0234375 0  0.8046875 0.0234375 0  0.8125 0.0234375 0  0.8203125 0.0234375 0  0.828125 0.0234375 0  0.8359375 0.0234375 0  0.84375 0.0234375 0  0.8515625 0.0234375 0  0.859375 0.0234375 0  0.8671
[...]
<PointData  Scalars="u_sol"> 
<DataArray  type="Float64"  Name="u_sol"  format="ascii">1.9401068247113226e-06  -1.0107341666258531e-05  -2.1663827719501523e-05  -2.3628967210286419e-05  -1.8405653745341225e-05  -7.4961402622209738e-06  7.3598407651570685e-06  2.4480128999877504e-05  4.2182229807372476e-05  5.8942449973780980e-05  7.3551416144739098e-05  8.5233724732647527e-05  9.3694517315566443e-05  9.9091008482750706e-05  1.0194805956765722e-04  1.0304545895675501e-04  1.0330333720617550e-04  1.0368311903879782e-04  1.0511032279959133e-04  1.0841671990293265e-04  1.1429632944691355e-04  1.2327033524700971e-04  1.3566387092214840e-04  1.5160158578791553e-04  1.7103317802975881e-04  1.9379807167185681e-04  2.1971508518836040e-04  2.4867736509622608e-04  2.8073872139297958e-04  3.1616475935450155e-04  3.5539522183451820e-04  3.9894678426192392e-04  4.4734048496431118e-04  5.0109094538703140e-04  5.6063761682735808e-04  6.2622615867974980e-04  6.9783400954608618e-04  7.7523355861499005e-04  8.5805391981799315e-04  9.4568915693048531e-04  1.0371825992528355e-03  1.1310012456437503e-03  1.2251723839111668e-03  1.3173300027347875e-03  1.4045385906695975e-03  1.4834982826970721e-03  1.5505385344235165e-03  1.6015174143049354e-03  1.6319872915584958e-03  1.6374431213652921e-03  1.6134796576769907e-03  1.5560037394482407e-03  1.4614802931181366e-03  1.3271752147383765e-03  1.1513790559604593e-03  9.3359189702719894e-04  6.7465798684012920e-04  3.7684507828816073e-04  4.3870386011448248e-05  -3.1912029226190543e-04  -7.0561261744782593e-04  -1.1078125239350333e-03  -1.5167525651134364e-03  -1.9224808539601947e-03  -2.3136633985564800e-03  -2.6802105018276018e-03  -3.0127161680337773e-03  -3.2971066627906767e-03  -3.5195497842111473e-03  -3.6687684553356882e-03  -3.7341112265252942e-03  -3.7069170189095472e-03  -3.5809216063474062e-03  -3.3528997608050972e-03  -3.0232291037955287e-03  -2.5963163309390847e-03  -2.0808712913992162e-03  -1.4899338316967041e-03  -8.4061799184256651e-04  -1.5352615083218842e-04  5.4822704959961693e-04  1.2409572171545714e-03  1.9003209294359024e-03  2.4992125140708733e-03  3.0143860920763773e-03  3.4391621204346548e-03  3.7598598219485764e-03  3.9677713726931916e-03  4.0642826457989454e-03  4.0549358013601310e-03  3.9495564986417077e-03  3.7616336880288443e-03  3.5068531802492703e-03  3.2017055387571218e-03  2.8648994957231741e-03  2.5133314422780776e-03  2.1551886276529254e-03  1.8050138728015175e-03  1.4750749316986996e-03  1.1714093895745334e-03  9.0020584363310918e-04  6.6467922325131950e-04  4.6575286412736921e-04  3.0267484497319396e-04  1.7309042255204024e-04  7.3611727219094741e-05  1.8002752652788002e-07  -5.1503509418828658e-05  -8.5594686710252201e-05  -1.0591764685555604e-04  -1.1587090057672608e-04  -1.1829252815412558e-04  -1.1558795389427640e-04  -1.0964418893897502e-04  -1.0178398305698137e-04  -9.2935160753658151e-05  -8.3831038256089923e-05  -7.4969156440101358e-05  -6.6650093975545018e-05  -5.9047390404488433e-05  -5.2201476389076059e-05  -4.6019259132003488e-05  -4.0253598451034743e-05  -3.4482510742597432e-05  -2.8105450286921681e-05  -2.0446065692886800e-05  -1.1105925553874771e-05  -1.4856091158627314e-06  9.2136948345417422e-07  1.1459171494628126e-06  -1.1026855974313728e-05  4.6711134018034314e-05  2.3102043757233930e-04  5.4387303291959213e-04  9.6939562223930637e-04  1.4802793706309022e-03  2.0437305377965348e-03  2.6252085526388912e-03  3.1920547145653025e-03  3.7165479817593524e-03  4.1781652189234724e-03  4.5648045249403286e-03  4.8729400019072808e-03  5.1068381823752076e-03  5.2770792753936129e-03  5.3986620597805419e-03  5.4889456263977820e-03  5.5656215039928958e-03  5.6448482670425678e-03  5.7396423060361553e-03  5.8586156300508736e-03  6.0051634733268716e-03  6.1772116862958242e-03  6.3675885919611671e-03  6.5649790696174631e-03  6.7552922347123992e-03  6.9231251352952642e-03  7.0529214512020395e-03  7.1295255420172820e-03  7.1380817817881482e-03  7.0633669507245631e-03  6.8887587405468886e-03  6.5951987054014161e-03  6.1606577673194258e-03  5.5601922099470374e-03  4.7663374828977312e-03  3.7495315530470270e-03  2.4787135361571833e-03  9.2226223974360428e-04  -9.5086951819670442e-04  -3.1698540582887048e-03  -5.7607833578291832e-03  -8.7452070822521353e-03  -1.2138446197327072e-02  -1.5948105088119138e-02  -2.0172573696309953e-02  -2.4800092992598270e-02  -2.9807968959719110e-02  -3.5162194897762136e-02  -4.0817656594957841e-02  -4.6718814729302303e-02  -5.2800826969122722e-02  -5.8991005602030404e-02  -6.5210487258706165e-02  -7.1375982732107754e-02  -7.7401490315415350e-02  -8.3199882780780623e-02  -8.8684312869102402e-02  -9.3769417322448811e-02  -9.8372330547613379e-02  -1.0241354571706214e-01  -1.0581768262046522e-01  -1.0851415912329290e-01  -1.1043832273948094e-01  -1.1153067380574271e-01  -1.1173754891800547e-01  -1.1101562601215385e-01  -1.0933301658785174e-01  -1.0666836637444493e-01  -1.0301338487232321e-01  -9.8374138864982252e-02  -9.2772799163502173e-02  -8.6249082530743676e-02  -7.8861460700999378e-02  -7.0687961089630436e-02  -6.1826364351645090e-02  -5.2393666730723265e-02  -4.2524656600704439e-02  -3.2369511183962793e-02  -2.2090391448245750e-02  -1.1857217357638037e-02  -1.8419404700472199e-03  7.7858619526659087e-03  1.6863734174002800e-02  2.5241876311841216e-02  3.2796971172402434e-02  3.9426753462241976e-02  4.5053181472961161e-02  4.9627338422682653e-02  5.3128902373062475e-02  5.5564869342005642e-02  5.6967478583639049e-02  5.7391308594748232e-02  5.6908948789225991e-02  5.5609955466889224e-02  5.3601542128679673e-02  5.0990311662928250e-02  4.7888572349956006e-02  4.4416375675488812e-02  4.0690618999050930e-02  3.6825277704092510e-02  3.2927606448934284e-02  2.9094129284010482e-02  2.5407850726034097e-02  2.1935674156726055e-02  1.8727092094464742e-02  1.5814078397137644e-02  1.3212255543283074e-02  1.0922935667379570e-02  8.9358743046163633e-03  7.2322931176829293e-03  5.7879137442933253e-03  4.5754683284456562e-03  3.5666384964195023e-03  2.7336977041368064e-03  2.0508191496921876e-03  1.4946702548828932e-03  1.0448480615722728e-03  6.8424727303591963e-04  3.9923960996735079e-04  1.7977895843860931e-04  1.9302481846595162e-05  -8.5761124190157786e-05  -1.3724087142242424e-04  -1.3773786411796915e-04  -9.5640616795416051e-05  -3.2078024508648481e-05  5.9582139036914611e-06  -7.8728270243264499e-06  3.8463449078281832e-05  2.3106104533089487e-04  6.1424524795640717e-04  1.1909240317034280e-03  1.9380152284598500e-03  2.8146999115833816e-03  3.7706122335253206e-03  4.7523289914296963e-03  5.7090781412683280e-03  6.5973982699394310e-03  7.3845031916923484e-03  8.0501478660942316e-03  8.5869802324538436e-03  8.9995409031556461e-03  9.3022000705035232e-03  9.5163774336471732e-03  9.6673849239014720e-03  9.7811858990710671e-03  9.8813115044698672e-03  9.9861414492909313e-03  1.0106742227043903e-02  1.0245460751263362e-02  1.0395435202012093e-02  1.0541103965535745e-02  1.0659628089605093e-02  1.0722880147468297e-02  1.0699511185716585e-02  1.0556630146482721e-02  1.0260646363841093e-02  9.7769917548021605e-03  9.0690374796358678e-03  8.0969733930785492e-03  6.8171845680826274e-03  5.1819515383914935e-03  3.1397296166096956e-03  6.3633272436813815e-04  -2.3829298898037769e-03  -5.9708702407096168e-03  -1.0175913722340604e-02  -1.5039245334337620e-02  -2.0591573444603842e-02  -2.6849977339592178e-02  -3.3815022267001206e-02  -4.1468289470116645e-02  -4.9770865533808155e-02  -5.8662953645704882e-02  -6.8064097492360212e-02  -7.7875240071139926e-02  -8.7981862096090185e-02  -9.8257654188786098e-02  -1.0856870147564832e-01  -1.1877772015533512e-01  -1.2874802150835410e-01  -1.3834695466521374e-01  -1.4744867713147256e-01  -1.5593619866187691e-01  -1.6370272454983556e-01  -1.7065238189240797e-01  -1.7670044820085989e-01  -1.8177321620495912e-01  -1.8580762701423620e-01  -1.8875078643281684e-01  -1.9055952189481121e-01  -1.9119979221714004e-01  -1.9064651532211782e-01  -1.8888520196169264e-01  -1.8591335506237450e-01  -1.8173462295620030e-01  -1.7636159940889085e-01  -1.6981750531135681e-01  -1.6213664785171705e-01  -1.5336549357641063e-01  -1.4356369862124327e-01  -1.3280508392342422e-01  -1.2117842625477589e-01  -1.0878793253234913e-01  -9.5753253679760550e-02  -8.2208915156990872e-02  -6.8303072686325850e-02  -5.4195583596601045e-02  -4.0055826254545651e-02  -2.6059296148234993e-02  -1.2377411787910943e-02  8.2305719372258526e-04  1.3369918503545193e-02  2.5108023816435416e-02  3.5902487236564383e-02  4.5634767923293386e-02  5.4207163922912319e-02  6.1544803914133084e-02  6.7596317304480860e-02  7.2334118996268779e-02  7.5754514185821686e-02  7.7875735157971596e-02  7.8736547037932134e-02  7.8396875171489439e-02  7.6947429771302714e-02  7.4496172599207378e-02  7.1162564445099136e-02  6.7087551736718459e-02  6.2425089247316240e-02  5.7337701529752358e-02  5.1991391500656521e-02  4.6547738356723892e-02  4.1156425598731457e-02  3.5948138621022072e-02  3.1029096778847014e-02  2.6477817892022824e-02  2.2344819883911970e-02  1.8654617107768404e-02  1.5409401053431292e-02  1.2593824931381243e-02  1.0179944635636594e-02  8.1320232979954013e-03  6.4105401839587815e-03  4.9750743591076172e-03  3.7868213911484371e-03  2.8103293885413708e-03  2.0145076626680116e-03  1.3733934851332286e-03  8.6648948528360900e-04  4.7865316754752918e-04  1.9932732457843082e-04  2.0648286272979920e-05  -6.5728615264649644e-05  -7.4649704701376703e-05  -3.2002501089237828e-05  5.8366158551559605e-06  -1.7692150452509652e-05  8.8661461535363378e-05  4.2264801626682873e-04  9.9947521090334741e-04  1.8104368520845502e-03  2.8225204912651343e-03  3.9841743523217907e-03  5.2330438584524443e-03  6.5036461240160813e-03  7.7341935040980293e-03  8.8720687886861826e-03  9.8776221672041854e-03  1.0726155203912083e-02  1.1408157446523510e-02  1.1928022336274073e-02  1.2301566445187997e-02  1.2552710780132091e-02  1.2709671099133511e-02  1.2800973975993370e-02  1.2851587037428872e-02  1.2879439094115843e-02  1.2892622722337736e-02  1.2887562337588443e-02  1.2848392212276759e-02  1.2747601997676574e-02  1.2547766013253381e-02  1.2203997683198806e-02  1.1666450759552487e-02  1.0881998951796302e-02  9.7948186254820414e-03  8.3462980116275377e-03  6.4744882968758213e-03  4.1131662908019161e-03  1.1914280304793226e-03  -2.3648101595242811e-03  -6.6299842506512448e-03  -1.1675407799958761e-02  -1.7565231021223468e-02  -2.4351520751500572e-02  -3.2069132846461477e-02  -4.0730784182002766e-02  -5.0322810266450364e-02  -6.0801669007865926e-02  -7.2092335851651909e-02  -8.4089124837041243e-02  -9.6658555758597553e-02  -1.0964434597185860e-01  -1.2287436946247132e-01  -1.3616805491453224e-01  -1.4934393020529185e-01  -1.6222663319838015e-01  -1.7465262213351956e-01  -1.8647437380948206e-01  -1.9756296489213848e-01  -2.0780914730083785e-01  -2.1712315203408203e-01  -2.2543352032479291e-01  -2.3268527484971513e-01  -2.3883771897072226e-01  -2.4386210537826075e-01  -2.4773936050665585e-01  -2.5045800006171781e-01  -2.5201232963368170e-01  -2.5240095816254193e-01  -2.5162581324974975e-01  -2.4969266308123983e-01  -2.4660957890407714e-01  -2.4238090641464835e-01  -2.3701519786089573e-01  -2.3052560347353904e-01  -2.2292937096600049e-01  -2.1425010207602369e-01  -2.0451919885487366e-01  -1.9377775381492740e-01  -1.8207839590869612e-01  -1.6948702270941615e-01  -1.5608425926936609e-01  -1.4196644599647387e-01  -1.2724597257117026e-01  -1.1205079208598376e-01  -9.6522974310746509e-02  -8.0815878160641286e-02  -6.5090575603219791e-02  -4.9516946467403823e-02  -3.4264687087954264e-02  -1.9484106064640978e-02  -5.3305521751694515e-03  8.0527685822632984e-03  2.0543410192672380e-02  3.2034581308173375e-02  4.2436629966323226e-02  5.1676753813486728e-02  5.9697833587560055e-02  6.6456672501219310e-02  7.1925467997572698e-02  7.6089603147431906e-02  7.8942231805413196e-02  8.0489066542137125e-02  8.0763123410786300e-02  7.9825440825940716e-02  7.7754295350446631e-02  7.4657425231876073e-02  7.0671819972323607e-02  6.5959477098455760e-02  6.0702656828504328e-02  5.5094410531813340e-02  4.9327287228663252e-02  4.3581435211539732e-02  3.8014046505512600e-02  3.2751564138361555e-02  2.7885827362220915e-02  2.3474191799356430e-02  1.9542663271527805e-02  1.6091465604338585e-02  1.3101426108290719e-02  1.0540141387990656e-02  8.3676458040294627e-03  6.5408260060472491e-03  5.0168525844373401e-03  3.7558929158403209e-03  2.7227575853379063e-03  1.8879439351929541e-03  1.2279612293335611e-03  7.2484859326551077e-04  3.6462018464062529e-04  1.3453582443924924e-04  1.8241060410460373e-05  -8.9344806662311143e-06  1.4488796410380688e-06  -2.6166722781996644e-05  1.3140544259786859e-04  5.9444260196984640e-04  1.3502945195471765e-03  2.3722762147917052e-03  3.6129346310732908e-03  5.0080516166423564e-03  6.4837241941249450e-03  7.9645087207341880e-03  9.3808271538858255e-03  1.0674754647498196e-02  1.1803729076466206e-02  1.2742120515562526e-02  1.3480869225989692e-02  1.4025555201329882e-02  1.4393306075385696e-02  1.4608922333697988e-02  1.4700545804448510e-02  1.4695155816394877e-02  1.4614172141267505e-02  1.4469488638277107e-02  1.4260303088670696e-02  1.3971125237634574e-02  1.3571229494047269e-02  1.3015688830948481e-02  1.2247718461122164e-02  1.1201457220048533e-02  9.8044574461132895e-03  7.9797030710310243e-03  5.6465403950514076e-03  2.7201160546611201e-03  -8.8909205337931168e-04  -5.2737999536182729e-03  -1.0526852852115924e-02  -1.6737055335106079e-02  -2.3983195204619751e-02  -3.2326929501336595e-02  -4.1805623583408169e-02  -5.2425543779612054e-02  -6.4155756934466845e-02  -7.6924087622705153e-02  -9.0616080774977598e-02  -1.0507787527888014e-01  -1.2012257427545470e-01  -1.3553954301912183e-01  -1.5110586148851521e-01  -1.6659826310862669e-01  -1.8180400617766301e-01  -1.9652992963366078e-01  -2.1060876588104263e-01  -2.2390250903068706e-01  -2.3630311982963237e-01  -2.4773100148189722e-01  -2.5813188403593423e-01  -2.6747274738583549e-01  -2.7573735138199107e-01  -2.8292181961460150e-01  -2.8903059043069201e-01  -2.9407292479715341e-01  -2.9806005680738396e-01  -3.0100299999128310e-01  -3.0291097221288860e-01  -3.0379038134268183e-01  -3.0364430253944724e-01  -3.0247252087338289e-01  -3.0027008897602997e-01  -2.9702666161843727e-01  -2.9273521089211474e-01  -2.8738857157476305e-01  -2.8097943354173327e-01  -2.7350367492675676e-01  -2.6496144916083558e-01  -2.5535951480804625e-01  -2.4471346618066514e-01  -2.3305018323044796e-01  -2.2041030124419761e-01  -2.0685053287528049e-01  -1.9244563552655725e-01  -1.7728975806386801e-01  -1.6149688985173730e-01  -1.4520015016674437e-01  -1.2854992688270836e-01  -1.1171061962387349e-01  -9.4852835796726584e-02  -7.8150797361243918e-02  -6.1784678970658827e-02  -4.5912707603621698e-02  -3.0680853568352720e-02  -1.6219775525348288e-02  -2.6366487982744718e-03  9.9828450097352705e-03  2.1573022130679652e-02  3.2084757115296174e-02  4.1481740457913585e-02  4.9733760981974205e-02  5.6816110250442753e-02  6.2712764026191872e-02  6.7399309497392729e-02  7.0846262137440635e-02  7.3035317548349993e-02  7.3972199024331581e-02  7.3680710772621047e-02  7.2213803073782570e-02  6.9662102109960891e-02  6.6154241297798844e-02  6.1854808190421003e-02  5.6956128595998620e-02  5.1665446190734224e-02  4.6189743180420545e-02  4.0720674955107707e-02  3.5422170139793034e-02  3.0422497795808027e-02  2.5811593634227317e-02  2.1642659313545767e-02  1.7936957113486040e-02  1.4690597578825777e-02  1.1881785987401253e-02  9.4773852781872853e-03  7.4384124438800206e-03  5.7242996090773454e-03  4.2962650221262336e-03  3.1195151525536813e-03  2.1645727965757962e-03  1.4077191451083355e-03  8.3045548700415794e-04  4.1793982303037675e-04  1.5570547381264617e-04  2.5749698405589787e-05  -5.3622520937436891e-06  -3.3361920427517882e-05  1.6722526661495287e-04  7.4557563802416199e-04  1.6667571964422369e-03  2.8833664880147949e-03  4.3293848894754858e-03  5.9243120800740552e-03  7.5805610380395060e-03  9.2122616964976090e-03  1.0743148329125464e-02  1.2112344459316766e-02  1.3277510954410132e-02  1.4215430704878546e-02  1.4920470275944711e-02  1.5401501277739038e-02  1.5677828636846358e-02  1.5774545812976236e-02  1.5717611082061329e-02  1.5528867555599457e-02  1.5221271328739719e-02  1.4794660033364238e-02  1.4232502135589201e-02  1.3500140285959543e-02  1.2544937569397816e-02  1.1298100488291055e-02  9.6776462585317340e-03  7.5921470097369895e-03  4.9439688722910336e-03  1.6305026037777158e-03  -2.4553743167420295e-03  -7.4237220270544878e-03  -1.3384891249113422e-02  -2.0445006593997627e-02  -2.8698313472319534e-02  -3.8217911238252675e-02  -4.9046258166252618e-02  -6.1185834494271195e-02  -7.4591058637379942e-02  -8.9163551766664573e-02  -1.0475205828669559e-01  -1.2115754412349494e-01  -1.3814352311263331e-01  -1.5545038359338378e-01  -1.7281192948184498e-01  -1.8997180780309897e-01  -2.0669753881608119e-01  -2.2279072696885399e-01  -2.3809281508748911e-01  -2.5248634967539335e-01  -2.6589256307699122e-01  -2.7826632705363658e-01  -2.8958959957911040e-01  -2.9986441204051012e-01  -3.0910619058692418e-01  -3.1733794098642043e-01  -3.2458556213106787e-01  -3.3087434802105320e-01  -3.3622659187356646e-01  -3.4066012090765835e-01  -3.4418755908000992e-01  -3.4681611529469042e-01  -3.4854772213024254e-01  -3.4937937254878387e-01  -3.4930358177863513e-01  -3.4830843399061356e-01  -3.4637890797971854e-01  -3.4350031952120808e-01  -3.3965369921187394e-01  -3.3481763016957228e-01  -3.2897073767074747e-01  -3.2209162404550135e-01  -3.1416090254926365e-01  -3.0516291006386081e-01  -2.9508807805713150e-01  -2.8393564836482160e-01  -2.7171676806744693e-01  -2.5845782312017168e-01  -2.4420380075059078e-01  -2.2902138246001666e-01  -2.1300137849139364e-01  -1.9626006654595235e-01  -1.7893888208530967e-01  -1.6120207584834756e-01  -1.4323395365783465e-01  -1.2523116124966024e-01  -1.0739017935596146e-01  -8.9909305322907696e-02  -7.2970498767326641e-02  -5.6732399815540423e-02  -4.1326697779442513e-02  -2.6853384082499283e-02  -1.3381226868990233e-02  -9.5066253313660606e-04  1.0419827872596404e-02  2.0727452818537665e-02  2.9974464734044592e-02  3.8157406279038374e-02  4.5278496647685941e-02  5.1325623516703778e-02  5.6263906671098672e-02  6.0050400956986993e-02  6.2651226248252034e-02  6.4044821256096229e-02  6.4232692921637830e-02  6.3253861801801856e-02  6.1191341298378513e-02  5.8174141222379419e-02  5.4372385504996776e-02  4.9985239813366986e-02  4.5224499874724884e-02  4.0296815038827552e-02  3.5387821124772650e-02  3.0650671187410466e-02  2.6200310904782267e-02  2.2113224822547319e-02  1.8431165152273690e-02  1.5167145805643947e-02  1.2312769603600735e-02  9.8452906316339323e-03  7.7335879276840044e-03  5.9429986381463505e-03  4.4391882992539369e-03  3.1909216213352040e-03  2.1719393708511899e-03  1.3619623676073519e-03  7.4679397621568288e-04  3.1720950949809242e-04  6.6793827886437704e-05  -1.3415033347323857e-05  -3.9872957839444371e-05  1.9954675228854479e-04  8.8568016268242853e-04  1.9645725207670557e-03  3.3665722954438928e-03  5.0033120882905504e-03  6.7739496510659889e-03  8.5742057295611629e-03  1.0306459315622482e-02  1.1888226482282157e-02  1.3257658509673687e-02  1.4375586618094004e-02  1.5224473110135256e-02  1.5805061961983960e-02  1.6131613067281569e-02  1.6226441128821736e-02  1.6114229635128541e-02  1.5816358402256911e-02  1.5345445227423132e-02  1.4700275235125702e-02  1.3861551943229257e-02  1.2789132572066937e-02  1.1421217445411740e-02  9.6756125614965802e-03  7.4532980628065001e-03  4.6433495489460151e-03  1.1268462165022215e-03  -3.2203044466747851e-03  -8.5245436112052243e-03  -1.4912191401786470e-02  -2.2505422522240720e-02  -3.1414433475120969e-02  -4.1726912990786194e-02  -5.3496000422418900e-02  -6.6727379417684085e-02  -8.1368541860455390e-02  -9.7302764773392392e-02  -1.1434932528815583e-01  -1.3227063103447820e-01  -1.5078632052018109e-01  -1.6959276012188482e-01  -1.883849