<?xml version="1.0"?>
<VTKFile type="UnstructuredGrid"  version="0.1"  >
<UnstructuredGrid>
<Piece  NumberOfPoints="16641" NumberOfCells="16384">
<Points>
<DataArray  type="Float64"  NumberOfComponents="3"  format="ascii">0 0 0  0.0078125 0 0  0.015625 0 0  0.0234375 0 0  0.03125 0 0  0.0390625 0 0  0.046875 0 0  0.0546875 0 0  0.0625 0 0  0.0703125 0 0  0.078125 0 0  0.0859375 0 0  0.09375 0 0  0.1015625 0 0  0.109375 0 0  0.1171875 0 0  0.125 0 0  0.1328125 0 0  0.140625 0 0  0.1484375 0 0  0.15625 0 0  0.1640625 0 0  0.171875 0 0  0.1796875 0 0  0.1875 0 0  0.1953125 0 0  0.203125 0 0  0.2109375 0 0  0.21875 0 0  0.2265625 0 0  0.234375 0 0  0.2421875 0 0  0.25 0 0  0.2578125 0 0  0.265625 0 0  0.2734375 0 0  0.28125 0 0  0.2890625 0 0  0.296875 0 0  0.3046875 0 0  0.3125 0 0  0.3203125 0 0  0.328125 0 0  0.3359375 0 0  0.34375 0 0  0.3515625 0 0  0.359375 0 0  0.3671875 0 0  0.375 0 0  0.3828125 0 0  0.390625 0 0  0.3984375 0 0  0.40625 0 0  0.4140625 0 0  0.421875 0 0  0.4296875 0 0  0.4375 0 0  0.4453125 0 0  0.453125 0 0  0.4609375 0 0  0.46875 0 0  0.4765625 0 0  0.484375 0 0  0.4921875 0 0  0.5 0 0  0.5078125 0 0  0.515625 0 0  0.5234375 0 0  0.53125 0 0  0.5390625 0 0  0.546875 0 0  0.5546875 0 0  0.5625 0 0  0.5703125 0 0  0.578125 0 0  0.5859375 0 0  0.59375 0 0  0.6015625 0 0  0.609375 0 0  0.6171875 0 0  0.625 0 0  0.6328125 0 0  0.640625 0 0  0.6484375 0 0  0.65625 0 0  0.6640625 0 0  0.671875 0 0  0.6796875 0 0  0.6875 0 0  0.6953125 0 0  0.703125 0 0  0.7109375 0 0  0.71875 0 0  0.7265625 0 0  0.734375 0 0  0.7421875 0 0  0.75 0 0  0.7578125 0 0  0.765625 0 0  0.7734375 0 0  0.78125 0 0  0.7890625 0 0  0.796875 0 0  0.8046875 0 0  0.8125 0 0  0.8203125 0 0  0.828125 0 0  0.8359375 0 0  0.84375 0 0  0.8515625 0 0  0.859375 0 0  0.8671875 0 0  0.875 0 0  0.8828125 0 0  0.890625 0 0  0.8984375 0 0  0.90625 0 0  0.9140625 0 0  0.921875 0 0  0.9296875 0 0  0.9375 0 0  0.9453125 0 0  0.953125 0 0  0.9609375 0 0  0.96875 0 0  0.9765625 0 0  0.984375 0 0  0.9921875 0 0  1 0 0  0 0.0078125 0  0.0078125 0.0078125 0  0.015625 0.0078125 0  0.0234375 0.0078125 0  0.03125 0.0078125 0  0.0390625 0.0078125 0  0.046875 0.0078125 0  0.0546875 0.0078125 0  0.0625 0.0078125 0  0.0703125 0.0078125 0  0.078125 0.0078125 0  0.0859375 0.0078125 0  0.09375 0.0078125 0  0.1015625 0.0078125 0  0.109375 0.0078125 0  0.1171875 0.0078125 0  0.125 0.0078125 0  0.1328125 0.0078125 0  0.140625 0.0078125 0  0.1484375 0.0078125 0  0.15625 0.0078125 0  0.1640625 0.0078125 0  0.171875 0.0078125 0  0.1796875 0.0078125 0  0.1875 0.0078125 0  0.1953125 0.0078125 0  0.203125 0.0078125 0  0.2109375 0.0078125 0  0.21875 0.0078125 0  0.2265625 0.0078125 0  0.234375 0.0078125 0  0.2421875 0.0078125 0  0.25 0.0078125 0  0.2578125 0.0078125 0  0.265625 0.0078125 0  0.2734375 0.0078125 0  0.28125 0.0078125 0  0.2890625 0.0078125 0  0.296875 0.0078125 0  0.3046875 0.0078125 0  0.3125 0.0078125 0  0.3203125 0.0078125 0  0.328125 0.0078125 0  0.3359375 0.0078125 0  0.34375 0.0078125 0  0.3515625 0.0078125 0  0.359375 0.0078125 0  0.3671875 0.0078125 0  0.375 0.0078125 0  0.3828125 0.0078125 0  0.390625 0.0078125 0  0.3984375 0.0078125 0  0.40625 0.0078125 0  0.4140625 0.0078125 0  0.421875 0.0078125 0  0.4296875 0.0078125 0  0.4375 0.0078125 0  0.4453125 0.0078125 0  0.453125 0.0078125 0  0.4609375 0.0078125 0  0.46875 0.0078125 0  0.4765625 0.0078125 0  0.484375 0.0078125 0  0.4921875 0.0078125 0  0.5 0.0078125 0  0.5078125 0.0078125 0  0.515625 0.0078125 0  0.5234375 0.0078125 0  0.53125 0.0078125 0  0.5390625 0.0078125 0  0.546875 0.0078125 0  0.5546875 0.0078125 0  0.5625 0.0078125 0  0.5703125 0.0078125 0  0.578125 0.0078125 0  0.5859375 0.0078125 0  0.59375 0.0078125 0  0.6015625 0.0078125 0  0.609375 0.0078125 0  0.6171875 0.0078125 0  0.625 0.0078125 0  0.6328125 0.0078125 0  0.640625 0.0078125 0  0.6484375 0.0078125 0  0.65625 0.0078125 0  0.6640625 0.0078125 0  0.671875 0.0078125 0  0.6796875 0.0078125 0  0.6875 0.0078125 0  0.6953125 0.0078125 0  0.703125 0.0078125 0  0.7109375 0.0078125 0  0.71875 0.0078125 0  0.7265625 0.0078125 0  0.734375 0.0078125 0  0.7421875 0.0078125 0  0.75 0.0078125 0  0.7578125 0.0078125 0  0.765625 0.0078125 0  0.7734375 0.0078125 0  0.78125 0.0078125 0  0.7890625 0.0078125 0  0.796875 0.0078125 0  0.8046875 0.0078125 0  0.8125 0.0078125 0  0.8203125 0.0078125 0  0.828125 0.0078125 0  0.8359375 0.0078125 0  0.84375 0.0078125 0  0.8515625 0.0078125 0  0.859375 0.0078125 0  0.8671875 0.0078125 0  0.875 0.0078125 0  0.8828125 0.0078125 0  0.890625 0.0078125 0  0.8984375 0.0078125 0  0.90625 0.0078125 0  0.9140625 0.0078125 0  0.921875 0.0078125 0  0.9296875 0.0078125 0  0.9375 0.0078125 0  0.9453125 0.0078125 0  0.953125 0.0078125 0  0.9609375 0.0078125 0  0.96875 0.0078125 0  0.9765625 0.0078125 0  0.984375 0.0078125 0  0.9921875 0.0078125 0  1 0.0078125 0  0 0.015625 0  0.0078125 0.015625 0  0.015625 0.015625 0  0.0234375 0.015625 0  0.03125 0.015625 0  0.0390625 0.015625 0  0.046875 0.015625 0  0.0546875 0.015625 0  0.0625 0.015625 0  0.0703125 0.015625 0  0.078125 0.015625 0  0.0859375 0.015625 0  0.09375 0.015625 0  0.1015625 0.015625 0  0.109375 0.015625 0  0.1171875 0.015625 0  0.125 0.015625 0  0.1328125 0.015625 0  0.140625 0.015625 0  0.1484375 0.015625 0  0.15625 0.015625 0  0.1640625 0.015625 0  0.171875 0.015625 0  0.1796875 0.015625 0  0.1875 0.015625 0  0.1953125 0.015625 0  0.203125 0.015625 0  0.2109375 0.015625 0  0.21875 0.015625 0  0.2265625 0.015625 0  0.234375 0.015625 0  0.2421875 0.015625 0  0.25 0.015625 0  0.2578125 0.015625 0  0.265625 0.015625 0  0.2734375 0.015625 0  0.28125 0.015625 0  0.2890625 0.015625 0  0.296875 0.015625 0  0.3046875 0.015625 0  0.3125 0.015625 0  0.3203125 0.015625 0  0.328125 0.015625 0  0.3359375 0.015625 0  0.34375 0.015625 0  0.3515625 0.015625 0  0.359375 0.015625 0  0.3671875 0.015625 0  0.375 0.015625 0  0.3828125 0.015625 0  0.390625 0.015625 0  0.3984375 0.015625 0  0.40625 0.015625 0  0.4140625 0.015625 0  0.421875 0.015625 0  0.4296875 0.015625 0  0.4375 0.015625 0  0.4453125 0.015625 0  0.453125 0.015625 0  0.4609375 0.015625 0  0.46875 0.015625 0  0.4765625 0.015625 0  0.484375 0.015625 0  0.4921875 0.015625 0  0.5 0.015625 0  0.5078125 0.015625 0  0.515625 0.015625 0  0.5234375 0.015625 0  0.53125 0.015625 0  0.5390625 0.015625 0  0.546875 0.015625 0  0.5546875 0.015625 0  0.5625 0.015625 0  0.5703125 0.015625 0  0.578125 0.015625 0  0.5859375 0.015625 0  0.59375 0.015625 0  0.6015625 0.015625 0  0.609375 0.015625 0  0.6171875 0.015625 0  0.625 0.015625 0  0.6328125 0.015625 0  0.640625 0.015625 0  0.6484375 0.015625 0  0.65625 0.015625 0  0.6640625 0.015625 0  0.671875 0.015625 0  0.6796875 0.015625 0  0.6875 0.015625 0  0.6953125 0.015625 0  0.703125 0.015625 0  0.7109375 0.015625 0  0.71875 0.015625 0  0.7265625 0.015625 0  0.734375 0.015625 0  0.7421875 0.015625 0  0.75 0.015625 0  0.7578125 0.015625 0  0.765625 0.015625 0  0.7734375 0.015625 0  0.78125 0.015625 0  0.7890625 0.015625 0  0.796875 0.015625 0  0.8046875 0.015625 0  0.8125 0.015625 0  0.8203125 0.015625 0  0.828125 0.015625 0  0.8359375 0.015625 0  0.84375 0.015625 0  0.8515625 0.015625 0  0.859375 0.015625 0  0.8671875 0.015625 0  0.875 0.015625 0  0.8828125 0.015625 0  0.890625 0.015625 0  0.8984375 0.015625 0  0.90625 0.015625 0  0.9140625 0.015625 0  0.921875 0.015625 0  0.9296875 0.015625 0  0.9375 0.015625 0  0.9453125 0.015625 0  0.953125 0.015625 0  0.9609375 0.015625 0  0.96875 0.015625 0  0.9765625 0.015625 0  0.984375 0.015625 0  0.9921875 0.015625 0  1 0.015625 0  0 0.0234375 0  0.0078125 0.0234375 0  0.015625 0.0234375 0  0.0234375 0.0234375 0  0.03125 0.0234375 0  0.0390625 0.0234375 0  0.046875 0.0234375 0  0.0546875 0.0234375 0  0.0625 0.0234375 0  0.0703125 0.0234375 0  0.078125 0.0234375 0  0.0859375 0.0234375 0  0.09375 0.0234375 0  0.1015625 0.0234375 0  0.109375 0.0234375 0  0.1171875 0.0234375 0  0.125 0.0234375 0  0.1328125 0.0234375 0  0.140625 0.0234375 0  0.1484375 0.0234375 0  0.15625 0.0234375 0  0.1640625 0.0234375 0  0.171875 0.0234375 0  0.1796875 0.0234375 0  0.1875 0.0234375 0  0.1953125 0.0234375 0  0.203125 0.0234375 0  0.2109375 0.0234375 0  0.21875 0.0234375 0  0.2265625 0.0234375 0  0.234375 0.0234375 0  0.2421875 0.0234375 0  0.25 0.0234375 0  0.2578125 0.0234375 0  0.265625 0.0234375 0  0.2734375 0.0234375 0  0.28125 0.0234375 0  0.2890625 0.0234375 0  0.296875 0.0234375 0  0.3046875 0.0234375 0  0.3125 0.0234375 0  0.3203125 0.0234375 0  0.328125 0.0234375 0  0.3359375 0.0234375 0  0.34375 0.0234375 0  0.3515625 0.0234375 0  0.359375 0.0234375 0  0.3671875 0.0234375 0  0.375 0.0234375 0  0.3828125 0.0234375 0  0.390625 0.0234375 0  0.3984375 0.0234375 0  0.40625 0.0234375 0  0.4140625 0.0234375 0  0.421875 0.0234375 0  0.4296875 0.0234375 0  0.4375 0.0234375 0  0.4453125 0.0234375 0  0.453125 0.0234375 0  0.4609375 0.0234375 0  0.46875 0.0234375 0  0.4765625 0.0234375 0  0.484375 0.0234375 0  0.4921875 0.0234375 0  0.5 0.0234375 0  0.5078125 0.0234375 0  0.515625 0.0234375 0  0.5234375 0.0234375 0  0.53125 0.0234375 0  0.5390625 0.0234375 0  0.546875 0.0234375 0  0.5546875 0.0234375 0  0.5625 0.0234375 0  0.5703125 0.0234375 0  0.578125 0.0234375 0  0.5859375 0.0234375 0  0.59375 0.0234375 0  0.6015625 0.0234375 0  0.609375 0.0234375 0  0.6171875 0.0234375 0  0.625 0.0234375 0  0.6328125 0.0234375 0  0.640625 0.0234375 0  0.6484375 0.0234375 0  0.65625 0.0234375 0  0.6640625 0.0234375 0  0.671875 0.0234375 0  0.6796875 0.0234375 0  0.6875 0.0234375 0  0.6953125 0.0234375 0  0.703125 0.0234375 0  0.7109375 0.0234375 0  0.71875 0.0234375 0  0.7265625 0.0234375 0  0.734375 0.0234375 0  0.7421875 0.0234375 0  0.75 0.0234375 0  0.7578125 0.0234375 0  0.765625 0.0234375 0  0.7734375 0.0234375 0  0.78125 0.0234375 0  0.7890625 0.0234375 0  0.796875 0.0234375 0  0.8046875 0.0234375 0  0.8125 0.0234375 0  0.8203125 0.0234375 0  0.828125 0.0234375 0  0.8359375 0.0234375 0  0.84375 0.0234375 0  0.8515625 0.0234375 0  0.859375 0.0234375 0  0.8671
[...]
<PointData  Scalars="v_sol"> 
<DataArray  type="Float64"  Name="v_sol"  format="ascii">-1.9317414327081344e-06  -1.0287195492497729e-06  8.9873683533406805e-06  2.1085069822005015e-05  3.2315043642357684e-05  4.1436403960175451e-05  4.7747676569166450e-05  5.0949150531092423e-05  5.1057061919757823e-05  4.8398919558658826e-05  4.3546723714001731e-05  3.7234334973454705e-05  3.0254689726222410e-05  2.3365339723745392e-05  1.7212144774904610e-05  1.2280133952361108e-05  8.8701560379602557e-06  7.0965490097146027e-06  6.8987822291313627e-06  8.0618135380628823e-06  1.0243199216462115e-05  1.3008040890452699e-05  1.5873852973510686e-05  1.8364581059733846e-05  2.0067165202192725e-05  2.0679419511994445e-05  2.0035877261552799e-05  1.8098299821630493e-05  1.4911265152206269e-05  1.0540055700114526e-05  5.0097211723927258e-06  -1.7401467747162664e-06  -9.8744108061675045e-06  -1.9637917367940823e-05  -3.1306592699658431e-05  -4.5145352494666501e-05  -6.1394430004952491e-05  -8.0248839856661438e-05  -1.0185105307041567e-04  -1.2626394231391735e-04  -1.5348381680622936e-04  -1.8341906976886922e-04  -2.1584102787882334e-04  -2.5039741732166152e-04  -2.8663519327138759e-04  -3.2385945679851917e-04  -3.6131011068764128e-04  -3.9820655989650163e-04  -4.3356577840011868e-04  -4.6637782099786786e-04  -4.9563071293237280e-04  -5.2033606738737242e-04  -5.3957954448787860e-04  -5.5254772146389104e-04  -5.5855514424888342e-04  -5.5705691509085422e-04  -5.4765244770271098e-04  -5.3008318229268614e-04  -5.0421800258674805e-04  -4.7005328802827051e-04  -4.2767166219896262e-04  -3.7730255401532942e-04  -3.1915166246371078e-04  -2.5378190984342945e-04  -1.8127644288022258e-04  -1.0293866095647286e-04  -1.8863156683454763e-05  7.0815590080864886e-05  1.6389820586027557e-04  2.5945087365293525e-04  3.5604974653199360e-04  4.5201237259368687e-04  5.4555100320846173e-04  6.3466991583292396e-04  7.1729073274784752e-04  7.9126925766120654e-04  8.5449043682499996e-04  9.0496515107361725e-04  9.4089720171445601e-04  9.6089194526657829e-04  9.6382910269162520e-04  9.4972477935940632e-04  9.1859270393654076e-04  8.6799267262903758e-04  8.0313287566914832e-04  7.2686473751577667e-04  6.3788734407929832e-04  5.4082617480474392e-04  4.3847038545141124e-04  3.3376730885532739e-04  2.2975553652499953e-04  1.2917491753937170e-04  3.4283745436344132e-05  -5.2994790582621627e-05  -1.3026541276777399e-04  -1.9736496938837342e-04  -2.5367066368540075e-04  -2.9837857087139060e-04  -3.3178798890887460e-04  -3.5374740183496533e-04  -3.6497067200133088e-04  -3.6622545830843008e-04  -3.5860200726406236e-04  -3.4348292735158879e-04  -3.2240008429302924e-04  -2.9698659328181751e-04  -2.6887713248720398e-04  -2.3954227465523956e-04  -2.1024124719625929e-04  -1.8204373379127292e-04  -1.5569433078384029e-04  -1.3168558407709654e-04  -1.1027872534610126e-04  -9.1526108079733833e-05  -7.5358370810261327e-05  -6.1605942349197390e-05  -5.0032462817626472e-05  -4.0368484043371984e-05  -3.2322327432313366e-05  -2.5583120984072450e-05  -1.9831952277216738e-05  -1.4744316709857473e-05  -1.0022872106133454e-05  -5.4278429958607804e-06  -9.0249364019593688e-07  3.3051097809918525e-06  6.2761112580327445e-06  5.9878780461610846e-06  9.3361848340831972e-07  1.0067854039826191e-05  1.0831757606399321e-05  -4.3638462850265627e-05  -1.0584929539343898e-04  -1.6331174109620550e-04  -2.0970509773612694e-04  -2.4173566103898982e-04  -2.5786930449264050e-04  -2.5822678465491978e-04  -2.4449243914911233e-04  -2.1961585411780203e-04  -1.8736482555164647e-04  -1.5180113982111608e-04  -1.1678951554433678e-04  -8.5610852431616873e-05  -6.0715500471070718e-05  -4.3611805700541725e-05  -3.4860663489960356e-05  -3.4139088245985043e-05  -4.0344863459041292e-05  -5.1732594679157804e-05  -6.6088439454435754e-05  -8.0956000381193411e-05  -9.3911148617053765e-05  -1.0285461375254792e-04  -1.0626095228576144e-04  -1.0331021939527218e-04  -9.3841377761964544e-05  -7.8128602950176002e-05  -5.6549300542730660e-05  -2.9252040822945000e-05  4.0717477691388290e-06  4.4247587934094745e-05  9.2495466201153055e-05  1.5021288717970908e-04  2.1876792289813774e-04  2.9937930176733991e-04  3.9301081840075689e-04  5.0034729447331113e-04  6.2170958547952187e-04  7.5709159332069259e-04  9.0604500251105057e-04  1.0674204200006616e-03  1.2395040133481730e-03  1.4199442574452156e-03  1.6054621492260373e-03  1.7923839244823030e-03  1.9767136613387908e-03  2.1537850871271740e-03  2.3187092041953863e-03  2.4665927613422619e-03  2.5926678327795262e-03  2.6924877061684843e-03  2.7620613172255116e-03  2.7979628079724582e-03  2.7973905764809592e-03  2.7581880326217278e-03  2.6788284880758287e-03  2.5583778308983975e-03  2.3964450268154887e-03  2.1931358673161093e-03  1.9490162156150731e-03  1.6650973431382638e-03  1.3428494419571234e-03  9.8392442682052918e-04  5.9299559705512477e-04  1.7085694648697838e-04  -2.8068611735512935e-04  -7.5361895688493019e-04  -1.2421542195271962e-03  -1.7393089582434661e-03  -2.2364602908118121e-03  -2.7241498372064898e-03  -3.1917213043072285e-03  -3.6277854035543281e-03  -4.0204430538810362e-03  -4.3577877095601937e-03  -4.6284368521856672e-03  -4.8221915925742917e-03  -4.9307109781179534e-03  -4.9483514912362853e-03  -4.8734220090765066e-03  -4.7051363470534211e-03  -4.4399936320563731e-03  -4.0972625103185001e-03  -3.6907846107318660e-03  -3.2231120014276152e-03  -2.7145052245585639e-03  -2.1817891527632105e-03  -1.6405945649180720e-03  -1.1066898633626638e-03  -5.9404319265806739e-04  -1.1402429772460955e-04  3.2365460431882506e-04  7.0931391836292091e-04  1.0417739558235915e-03  1.3186356854303174e-03  1.5359171807990224e-03  1.6956485556657637e-03  1.7987581713257120e-03  1.8481733398436522e-03  1.8485157057399890e-03  1.8053232267180616e-03  1.7255307983425150e-03  1.6168075044627089e-03  1.4872306373650205e-03  1.3448032274325115e-03  1.1967974972275934e-03  1.0494570171468468e-03  9.0792510548314616e-04  7.7588416009397802e-04  6.5573062298507627e-04  5.4872326436655597e-04  4.5509118403257956e-04  3.7442368149059559e-04  3.0586334281191560e-04  2.4822924897911292e-04  2.0015422202460437e-04  1.6016912705218490e-04  1.2671928719115526e-04  9.8190061639616121e-05  7.2954102518564106e-05  4.9459196879069480e-05  2.6519633035412279e-05  3.6257727038592661e-06  -1.7762143485684258e-05  -3.3751279896536228e-05  -3.2021687880004250e-05  -1.5627969449784851e-06  2.1819282853556253e-05  -4.3165115881440637e-05  -2.4315326511549051e-04  -4.7308832787960810e-04  -6.8865898768054172e-04  -8.6450058587883333e-04  -9.8644060619519636e-04  -1.0479273349507062e-03  -1.0491167595145319e-03  -9.9612212199583845e-04  -8.9979520335852522e-04  -7.7406670586547285e-04  -6.3408036957765014e-04  -4.9442276036719239e-04  -3.6768155643938059e-04  -2.6345448954171081e-04  -1.8781801156983992e-04  -1.4318484115521986e-04  -1.2845005991460147e-04  -1.3934430714305617e-04  -1.6896097787160829e-04  -2.0846868374200519e-04  -2.4802466608266630e-04  -2.7785562549153083e-04  -2.8937143879373390e-04  -2.7607837787407672e-04  -2.3402921766505771e-04  -1.6164660270978151e-04  -5.8920674617481620e-05  7.3787862939095781e-05  2.3692407118062163e-04  4.3247966345262865e-04  6.6408926884938609e-04  9.3656520971250625e-04  1.2550628321697269e-03  1.6242037666411541e-03  2.0474682319497209e-03  2.5269181148934055e-03  3.0628248436717262e-03  3.6532984859784833e-03  4.2938565015707879e-03  4.9773275210863860e-03  5.6939008913924598e-03  6.4307707155283333e-03  7.1723864041285026e-03  7.9010777964033246e-03  8.5975311129548523e-03  9.2417053301290016e-03  9.8138458298874295e-03  1.0295277684915257e-02  1.0669300456263582e-02  1.0921866822953038e-02  1.1042000963272677e-02  1.1021990407528822e-02  1.0857333227412122e-02  1.0546501394292241e-02  1.0090572081468165e-02  9.4927943753171599e-03  8.7581491241599113e-03  7.8929524047257511e-03  6.9045391644840673e-03  5.8010458363420255e-03  4.5913204751238884e-03  3.2848708293904609e-03  1.8924177839852114e-03  4.2263331812895894e-04  -1.1102470326002005e-03  -2.6887873135176916e-03  -4.2989500693557279e-03  -5.9224653650576864e-03  -7.5387553929312226e-03  -9.1252898167033039e-03  -1.0656820491995763e-02  -1.2106175444636328e-02  -1.3444403255954696e-02  -1.4641635738211731e-02  -1.5667999469350088e-02  -1.6494866960197762e-02  -1.7096255595006025e-02  -1.7450390661719373e-02  -1.7541136678033253e-02  -1.7359030894072258e-02  -1.6903013309661871e-02  -1.6185651240109282e-02  -1.5213577956418643e-02  -1.4013330720578398e-02  -1.2626841057217467e-02  -1.1084185322354107e-02  -9.4268019792620224e-03  -7.6984115273277549e-03  -5.9414376845682770e-03  -4.1964687377700404e-03  -2.5010632823670074e-03  -8.8837138585010555e-04  6.1559669487884136e-04  1.9802955317011037e-03  3.1858221464353530e-03  4.2229530703694583e-03  5.0768501933061037e-03  5.7398371250203216e-03  6.2093411785068839e-03  6.4872257842298383e-03  6.5822619785296651e-03  6.5094077910730231e-03  6.2898996930170880e-03  5.9499794395003087e-03  5.5190018160296379e-03  5.0272225600849181e-03  4.5034824064732132e-03  3.9731953599916828e-03  3.4571837287201085e-03  2.9709281206751811e-03  2.5246956270781398e-03  2.1243418323815487e-03  1.7719713243899442e-03  1.4666821634120777e-03  1.2055241957034193e-03  9.8422404018522897e-04  7.9755101810339700e-04  6.3966210491370711e-04  5.0433736908309925e-04  3.8527476295776344e-04  2.7661955914668477e-04  1.7390617175584274e-04  7.5720078318577210e-05  -1.3582456618557226e-05  -7.9824311959492825e-05  -9.4160949721026912e-05  -1.1471071084220257e-05  2.5608095625781520e-05  -2.0664700724692164e-04  -6.1351714206074181e-04  -1.0642846591857906e-03  -1.4845861408800648e-03  -1.8269467803319589e-03  -2.0627964583441677e-03  -2.1789190853870890e-03  -2.1755755535797032e-03  -2.0647716838592210e-03  -1.8676604672897377e-03  -1.6112850143384968e-03  -1.3250307113148701e-03  -1.0372877179529790e-03  -7.7269796733821791e-04  -5.5019198370507823e-04  -3.8184269657556412e-04  -2.7244002777067848e-04  -2.1964223912503364e-04  -2.1458903528932512e-04  -2.4293011795828768e-04  -2.8628335257158415e-04  -3.2412743598803301e-04  -3.3600986273706908e-04  -3.0377397913740675e-04  -2.1334140771476264e-04  -5.5543013978027855e-05  1.7432923068490413e-04  4.7813423179347549e-04  8.5711734796749836e-04  1.3139943466086688e-03  1.8541556644374941e-03  2.4854589543179899e-03  3.2169161976246829e-03  4.0570523982986885e-03  5.0122511910626558e-03  6.0850834918151049e-03  7.2730774226130905e-03  8.5682655977612054e-03  9.9567045703123601e-03  1.1418030642567776e-02  1.2925318933449437e-02  1.4445519078523173e-02  1.5940704289135143e-02  1.7369644162091340e-02  1.8689848820022004e-02  1.9859960204293509e-02  2.0842015309970735e-02  2.1603415935094551e-02  2.2118383137207081e-02  2.2368749805649537e-02  2.2344127188148769e-02  2.2041483698541361e-02  2.1464280830655411e-02  2.0621333190535902e-02  1.9525547188032996e-02  1.8192682195278861e-02  1.6640236830914704e-02  1.4886530722433910e-02  1.2950019417615836e-02  1.0848848722547530e-02  8.6006517467716419e-03  6.2225292448748392e-03  3.7313435980601850e-03  1.1434053396429135e-03  -1.5212498422139105e-03  -4.2439866119188810e-03  -7.0079722045016980e-03  -9.7904303443161929e-03  -1.2566489145976453e-02  -1.5308394741162199e-02  -1.7984315752633494e-02  -2.0558995708190923e-02  -2.2993455811179026e-02  -2.5245774510015209e-02  -2.7271887629187176e-02  -2.9026991030097624e-02  -3.0467265480099461e-02  -3.1551983317394047e-02  -3.2245800376143087e-02  -3.2521108951258697e-02  -3.2360292572825633e-02  -3.1757506051353773e-02  -3.0717806995381135e-02  -2.9266068510958559e-02  -2.7431842717506344e-02  -2.5254808300112865e-02  -2.2792991658353228e-02  -2.0103439693574955e-02  -1.7247253024277397e-02  -1.4286781466830635e-02  -1.1282024676195601e-02  -8.2893823498390532e-03  -5.3606040278534545e-03  -2.5448177521257271e-03  1.2229891196786184e-04  2.5979439319865853e-03  4.8363656785077149e-03  6.8112712363079505e-03  8.4932483539128332e-03  9.8547043040010315e-03  1.0877812050151212e-02  1.1553228260641474e-02  1.1884708490209849e-02  1.1890325734309920e-02  1.1602718643457896e-02  1.1067219484253883e-02  1.0338062222541010e-02  9.4734594110584356e-03  8.5304323965383014e-03  7.5602815406824279e-03  6.6055781329462252e-03  5.6986794753476188e-03  4.8615160601273725e-03  4.1066269486389967e-03  3.4390817115157258e-03  2.8580637133410721e-03  2.3582276717532538e-03  1.9312241203385413e-03  1.5666373720572429e-03  1.2527506523025305e-03  9.7740806642521963e-04  7.2915897897369989e-04  4.9912202093657307e-04  2.8383910062002764e-04  8.9653178288061781e-05  -6.1378503232338525e-05  -1.2531966885707832e-04  -2.0923623744658347e-05  2.5337457490717105e-05  -4.7212741306312898e-04  -1.1480911888338756e-03  -1.8620495877893811e-03  -2.5164236010320673e-03  -3.0430404646506299e-03  -3.3989689296730925e-03  -3.5646145002696723e-03  -3.5415299309187538e-03  -3.3495067400665561e-03  -3.0222526408711639e-03  -2.6021684763454143e-03  -2.1348619232991286e-03  -1.6640947634660472e-03  -1.2276526105024397e-03  -8.5437704565259284e-04  -5.6237027659871331e-04  -3.5823980220442501e-04  -2.3721251117752641e-04  -1.8399704582257456e-04  -1.7437968267384609e-04  -1.7759026721154769e-04  -1.5940940016852031e-04  -8.5796469383645385e-05  7.3520968878061061e-05  3.4231381383835165e-04  7.3674035536974334e-04  1.2662261870755726e-03  1.9361126084177106e-03  2.7510229028735130e-03  3.7174872297831294e-03  4.8449353705058897e-03  6.1450734714008125e-03  7.6291079558695150e-03  9.3038734387929332e-03  1.1168892087597103e-02  1.3214564531395075e-02  1.5420699695574549e-02  1.7755433770872135e-02  2.0175254744487794e-02  2.2625939942128651e-02  2.5044525737905877e-02  2.7362414933428711e-02  2.9509352592510155e-02  3.1417801730957401e-02  3.3027137532331170e-02  3.4287135951442317e-02  3.5160335911281197e-02  3.5623098373576065e-02  3.5665433337395552e-02  3.5289766955726727e-02  3.4508965841927156e-02  3.3343964147679081e-02  3.1821292665901529e-02  2.9970759632740405e-02  2.7823447576162088e-02  2.5410117460735827e-02  2.2760052166072301e-02  1.9900324166753466e-02  1.6855444595427694e-02  1.3647344169191425e-02  1.0295617456292842e-02  6.8180223894327334e-03  3.2310229598063213e-03  -4.4849753615114433e-04  -4.2053511184713078e-03  -8.0233715956984815e-03  -1.1881332837415272e-02  -1.5755953968537233e-02  -1.9619966236256576e-02  -2.3440826560858361e-02  -2.7180831105351029e-02  -3.0796313023554629e-02  -3.4237990410327143e-02  -3.7451324226716237e-02  -4.0377667179105813e-02  -4.2955898132015884e-02  -4.5124741115750211e-02  -4.6825620452952368e-02  -4.8005960045950750e-02  -4.8622672391982473e-02  -4.8645469709882129e-02  -4.8059610454806390e-02  -4.6868891816910140e-02  -4.5093946590543527e-02  -4.2775262051011412e-02  -3.9968569521759201e-02  -3.6740581339013562e-02  -3.3169021947246011e-02  -2.9334294845154756e-02  -2.5316798038075985e-02  -2.1193159527668693e-02  -1.7033535919536501e-02  -1.2901227591028531e-02  -8.8507891726358374e-03  -4.9364737309458232e-03  -1.1985860198521782e-03  2.3227879510061655e-03  5.5678406220612950e-03  8.4883326259643406e-03  1.1038726324679074e-02  1.3168745849863125e-02  1.4837511069737372e-02  1.6016210278308546e-02  1.6694853858923667e-02  1.6886703396985760e-02  1.6629687031796101e-02  1.5984294585127946e-02  1.5027894565254997e-02  1.3846770079622539e-02  1.2527492519615666e-02  1.1149301206914326e-02  9.7786772013665445e-03  8.4666189306923552e-03  7.2484005999444399e-03  6.1447190606037060e-03  5.1641781857296081e-03  4.3061820537213889e-03  3.5629887562467185e-03  2.9217962085656343e-03  2.3665618328801326e-03  1.8795872423347801e-03  1.4435235679954139e-03  1.0441320834088082e-03  6.7422845535585992e-04  3.3943084068612748e-04  6.5659883041343080e-05  -9.1998818327295218e-05  -2.7585306556046709e-05  2.3077991775419395e-05  -8.2648169012314277e-04  -1.8331961216813276e-03  -2.8497930552193111e-03  -3.7599084281457417e-03  -4.4770982679079013e-03  -4.9459389351606230e-03  -5.1425816531030311e-03  -5.0725854145219585e-03  -4.7666062205267137e-03  -4.2738904773294579e-03  -3.6546444079346156e-03  -2.9723243280732146e-03  -2.2867790642098098e-03  -1.6488037083044083e-03  -1.0962978678108863e-03  -6.5194977565285453e-04  -3.2223338453377109e-04  -9.7523641123380250e-05  4.6737373381271136e-05  1.4778125428525536e-04  2.5204681737513878e-04  4.1054347459823737e-04  6.7351462665697919e-04  1.0853178191321847e-03  1.6807221222726895e-03  2.4837712570688238e-03  3.5094954949692584e-03  4.7675134304807501e-03  6.2663239789696561e-03  8.0163940627840258e-03  1.0029562561060745e-02  1.2315212033425260e-02  1.4876014324228333e-02  1.7703457300862292e-02  2.0773629421962033e-02  2.4044844994984219e-02  2.7457240760354648e-02  3.0934075473537916e-02  3.4384779279186269e-02  3.7709958234817584e-02  4.0807820793341297e-02  4.3581210112558173e-02  4.5944250852344680e-02  4.7827708674306128e-02  4.9182382078621203e-02  4.9980272841010268e-02  5.0213714505312521e-02  4.9892880938736353e-02  4.9042248025042333e-02  4.7696622577108050e-02  4.5897235865580005e-02  4.3688263500467943e-02  4.1113985343317769e-02  3.8216662045241580e-02  3.5035107866685067e-02  3.1603878492795223e-02  2.7952965029365697e-02  2.4107880148658112e-02  2.0090036469853703e-02  1.5917331777395547e-02  1.1604889793405480e-02  7.1658824887755141e-03  2.6125687782302637e-03  -2.0434607426972136e-03  -6.7891190191432665e-03  -1.1608177334079149e-02  -1.6482116237237332e-02  -2.1388087132116561e-02  -2.6297624356359468e-02  -3.1176008663510089e-02  -3.5981063526738230e-02  -4.0662741499172865e-02  -4.5162747483472411e-02  -4.9414898342188290e-02  -5.3346021618454774e-02  -5.6877722215941132e-02  -5.9928984840637321e-02  -6.2419681002895404e-02  -6.4274840885495316e-02  -6.5429460389513222e-02  -6.5833487147793010e-02  -6.5456528248674900e-02  -6.4291102470708753e-02  -6.2355363244491716e-02  -5.9692783527068076e-02  -5.6370542691308048e-02  -5.2475150204043773e-02  -4.8106319108472316e-02  -4.3371009823673035e-02  -3.8375809629378567e-02  -3.3221075315981473e-02  -2.7996438660990088e-02  -2.2777905953206300e-02  -1.7628950790446581e-02  -1.2599228395024463e-02  -7.7354021265596618e-03  -3.0768283015616704e-03  1.3445652002530780e-03  5.4722372585875329e-03  9.2425127785455644e-03  1.2594296597864927e-02  1.5457340441072434e-02  1.7766355795530483e-02  1.9469919891576374e-02  2.0539994978328580e-02  2.0979983514232997e-02  2.0828015178493510e-02  2.0154986187384261e-02  1.9057227730888030e-02  1.7645574981229536e-02  1.6033283974366524e-02  1.4325256001983805e-02  1.2610328955585186e-02  1.0957136853691285e-02  9.4134982264440590e-03  8.0080166462869196e-03  6.7528948248218659e-03  5.6476315848175357e-03  4.6820668220083949e-03  3.8391279149688510e-03  3.0976579731453488e-03  2.4352518877063392e-03  1.8319569628042504e-03  1.2751372144904198e-03  7.6636211140530266e-04  3.3029724712757747e-04  2.5525058527939348e-05  -3.0795027791062616e-05  2.0059137508520123e-05  -1.2594993166593917e-03  -2.6578115474936207e-03  -4.0162475081599990e-03  -5.2001342860446293e-03  -6.1063828700745632e-03  -6.6697093960617123e-03  -6.8656625617741895e-03  -6.7082624057383496e-03  -6.2437036436371095e-03  -5.5409455937955382e-03  -4.6810674521522181e-03  -3.7469966603500523e-03  -2.8148014442686536e-03  -1.9470987442591111e-03  -1.1886155188319714e-03  -5.6361656766650838e-04  -7.4866483532491605e-05  2.9608484921939094e-04  5.8730079624814166e-04  8.5328083919149731e-04  1.1600160770683223e-03  1.5784449867613879e-03  2.1770314136839142e-03  3.0149918277595656e-03  4.1379457740689978e-03  5.5769826376837698e-03  7.3516742478352036e-03  9.4753883178275884e-03  1.1958697584103397e-02  1.4809634921538630e-02  1.8031403501586059e-02  2.1616716694552354e-02  2.5540587007975291e-02  2.9755142331985757e-02  3.4187322667013624e-02  3.8739508964632262e-02  4.3293504836551283e-02  4.7717558960165149e-02  5.1875631179828727e-02  5