<?xml version="1.0"?>
<VTKFile type="UnstructuredGrid"  version="0.1"  >
<UnstructuredGrid>
<Piece  NumberOfPoints="1089" NumberOfCells="1024">
<Points>
<DataArray  type="Float64"  NumberOfComponents="3"  format="ascii">0 0 0  0.03125 0 0  0.0625 0 0  0.09375 0 0  0.125 0 0  0.15625 0 0  0.1875 0 0  0.21875 0 0  0.25 0 0  0.28125 0 0  0.3125 0 0  0.34375 0 0  0.375 0 0  0.40625 0 0  0.4375 0 0  0.46875 0 0  0.5 0 0  0.53125 0 0  0.5625 0 0  0.59375 0 0  0.625 0 0  0.65625 0 0  0.6875 0 0  0.71875 0 0  0.75 0 0  0.78125 0 0  0.8125 0 0  0.84375 0 0  0.875 0 0  0.90625 0 0  0.9375 0 0  0.96875 0 0  1 0 0  0 0.03125 0  0.03125 0.03125 0  0.0625 0.03125 0  0.09375 0.03125 0  0.125 0.03125 0  0.15625 0.03125 0  0.1875 0.03125 0  0.21875 0.03125 0  0.25 0.03125 0  0.28125 0.03125 0  0.3125 0.03125 0  0.34375 0.03125 0  0.375 0.03125 0  0.40625 0.03125 0  0.4375 0.03125 0  0.46875 0.03125 0  0.5 0.03125 0  0.53125 0.03125 0  0.5625 0.03125 0  0.59375 0.03125 0  0.625 0.03125 0  0.65625 0.03125 0  0.6875 0.03125 0  0.71875 0.03125 0  0.75 0.03125 0  0.78125 0.03125 0  0.8125 0.03125 0  0.84375 0.03125 0  0.875 0.03125 0  0.90625 0.03125 0  0.9375 0.03125 0  0.96875 0.03125 0  1 0.03125 0  0 0.0625 0  0.03125 0.0625 0  0.0625 0.0625 0  0.09375 0.0625 0  0.125 0.0625 0  0.15625 0.0625 0  0.1875 0.0625 0  0.21875 0.0625 0  0.25 0.0625 0  0.28125 0.0625 0  0.3125 0.0625 0  0.34375 0.0625 0  0.375 0.0625 0  0.40625 0.0625 0  0.4375 0.0625 0  0.46875 0.0625 0  0.5 0.0625 0  0.53125 0.0625 0  0.5625 0.0625 0  0.59375 0.0625 0  0.625 0.0625 0  0.65625 0.0625 0  0.6875 0.0625 0  0.71875 0.0625 0  0.75 0.0625 0  0.78125 0.0625 0  0.8125 0.0625 0  0.84375 0.0625 0  0.875 0.0625 0  0.90625 0.0625 0  0.9375 0.0625 0  0.96875 0.0625 0  1 0.0625 0  0 0.09375 0  0.03125 0.09375 0  0.0625 0.09375 0  0.09375 0.09375 0  0.125 0.09375 0  0.15625 0.09375 0  0.1875 0.09375 0  0.21875 0.09375 0  0.25 0.09375 0  0.28125 0.09375 0  0.3125 0.09375 0  0.34375 0.09375 0  0.375 0.09375 0  0.40625 0.09375 0  0.4375 0.09375 0  0.46875 0.09375 0  0.5 0.09375 0  0.53125 0.09375 0  0.5625 0.09375 0  0.59375 0.09375 0  0.625 0.09375 0  0.65625 0.09375 0  0.6875 0.09375 0  0.71875 0.09375 0  0.75 0.09375 0  0.78125 0.09375 0  0.8125 0.09375 0  0.84375 0.09375 0  0.875 0.09375 0  0.90625 0.09375 0  0.9375 0.09375 0  0.96875 0.09375 0  1 0.09375 0  0 0.125 0  0.03125 0.125 0  0.0625 0.125 0  0.09375 0.125 0  0.125 0.125 0  0.15625 0.125 0  0.1875 0.125 0  0.21875 0.125 0  0.25 0.125 0  0.28125 0.125 0  0.3125 0.125 0  0.34375 0.125 0  0.375 0.125 0  0.40625 0.125 0  0.4375 0.125 0  0.46875 0.125 0  0.5 0.125 0  0.53125 0.125 0  0.5625 0.125 0  0.59375 0.125 0  0.625 0.125 0  0.65625 0.125 0  0.6875 0.125 0  0.71875 0.125 0  0.75 0.125 0  0.78125 0.125 0  0.8125 0.125 0  0.84375 0.125 0  0.875 0.125 0  0.90625 0.125 0  0.9375 0.125 0  0.96875 0.125 0  1 0.125 0  0 0.15625 0  0.03125 0.15625 0  0.0625 0.15625 0  0.09375 0.15625 0  0.125 0.15625 0  0.15625 0.15625 0  0.1875 0.15625 0  0.21875 0.15625 0  0.25 0.15625 0  0.28125 0.15625 0  0.3125 0.15625 0  0.34375 0.15625 0  0.375 0.15625 0  0.40625 0.15625 0  0.4375 0.15625 0  0.46875 0.15625 0  0.5 0.15625 0  0.53125 0.15625 0  0.5625 0.15625 0  0.59375 0.15625 0  0.625 0.15625 0  0.65625 0.15625 0  0.6875 0.15625 0  0.71875 0.15625 0  0.75 0.15625 0  0.78125 0.15625 0  0.8125 0.15625 0  0.84375 0.15625 0  0.875 0.15625 0  0.90625 0.15625 0  0.9375 0.15625 0  0.96875 0.15625 0  1 0.15625 0  0 0.1875 0  0.03125 0.1875 0  0.0625 0.1875 0  0.09375 0.1875 0  0.125 0.1875 0  0.15625 0.1875 0  0.1875 0.1875 0  0.21875 0.1875 0  0.25 0.1875 0  0.28125 0.1875 0  0.3125 0.1875 0  0.34375 0.1875 0  0.375 0.1875 0  0.40625 0.1875 0  0.4375 0.1875 0  0.46875 0.1875 0  0.5 0.1875 0  0.53125 0.1875 0  0.5625 0.1875 0  0.59375 0.1875 0  0.625 0.1875 0  0.65625 0.1875 0  0.6875 0.1875 0  0.71875 0.1875 0  0.75 0.1875 0  0.78125 0.1875 0  0.8125 0.1875 0  0.84375 0.1875 0  0.875 0.1875 0  0.90625 0.1875 0  0.9375 0.1875 0  0.96875 0.1875 0  1 0.1875 0  0 0.21875 0  0.03125 0.21875 0  0.0625 0.21875 0  0.09375 0.21875 0  0.125 0.21875 0  0.15625 0.21875 0  0.1875 0.21875 0  0.21875 0.21875 0  0.25 0.21875 0  0.28125 0.21875 0  0.3125 0.21875 0  0.34375 0.21875 0  0.375 0.21875 0  0.40625 0.21875 0  0.4375 0.21875 0  0.46875 0.21875 0  0.5 0.21875 0  0.53125 0.21875 0  0.5625 0.21875 0  0.59375 0.21875 0  0.625 0.21875 0  0.65625 0.21875 0  0.6875 0.21875 0  0.71875 0.21875 0  0.75 0.21875 0  0.78125 0.21875 0  0.8125 0.21875 0  0.84375 0.21875 0  0.875 0.21875 0  0.90625 0.21875 0  0.9375 0.21875 0  0.96875 0.21875 0  1 0.21875 0  0 0.25 0  0.03125 0.25 0  0.0625 0.25 0  0.09375 0.25 0  0.125 0.25 0  0.15625 0.25 0  0.1875 0.25 0  0.21875 0.25 0  0.25 0.25 0  0.28125 0.25 0  0.3125 0.25 0  0.34375 0.25 0  0.375 0.25 0  0.40625 0.25 0  0.4375 0.25 0  0.46875 0.25 0  0.5 0.25 0  0.53125 0.25 0  0.5625 0.25 0  0.59375 0.25 0  0.625 0.25 0  0.65625 0.25 0  0.6875 0.25 0  0.71875 0.25 0  0.75 0.25 0  0.78125 0.25 0  0.8125 0.25 0  0.84375 0.25 0  0.875 0.25 0  0.90625 0.25 0  0.9375 0.25 0  0.96875 0.25 0  1 0.25 0  0 0.28125 0  0.03125 0.28125 0  0.0625 0.28125 0  0.09375 0.28125 0  0.125 0.28125 0  0.15625 0.28125 0  0.1875 0.28125 0  0.21875 0.28125 0  0.25 0.28125 0  0.28125 0.28125 0  0.3125 0.28125 0  0.34375 0.28125 0  0.375 0.28125 0  0.40625 0.28125 0  0.4375 0.28125 0  0.46875 0.28125 0  0.5 0.28125 0  0.53125 0.28125 0  0.5625 0.28125 0  0.59375 0.28125 0  0.625 0.28125 0  0.65625 0.28125 0  0.6875 0.28125 0  0.71875 0.28125 0  0.75 0.28125 0  0.78125 0.28125 0  0.8125 0.28125 0  0.84375 0.28125 0  0.875 0.28125 0  0.90625 0.28125 0  0.9375 0.28125 0  0.96875 0.28125 0  1 0.28125 0  0 0.3125 0  0.03125 0.3125 0  0.0625 0.3125 0  0.09375 0.3125 0  0.125 0.3125 0  0.15625 0.3125 0  0.1875 0.3125 0  0.21875 0.3125 0  0.25 0.3125 0  0.28125 0.3125 0  0.3125 0.3125 0  0.34375 0.3125 0  0.375 0.3125 0  0.40625 0.3125 0  0.4375 0.3125 0  0.46875 0.3125 0  0.5 0.3125 0  0.53125 0.3125 0  0.5625 0.3125 0  0.59375 0.3125 0  0.625 0.3125 0  0.65625 0.3125 0  0.6875 0.3125 0  0.71875 0.3125 0  0.75 0.3125 0  0.78125 0.3125 0  0.8125 0.3125 0  0.84375 0.3125 0  0.875 0.3125 0  0.90625 0.3125 0  0.9375 0.3125 0  0.96875 0.3125 0  1 0.3125 0  0 0.34375 0  0.03125 0.34375 0  0.0625 0.34375 0  0.09375 0.34375 0  0.125 0.34375 0  0.15625 0.34375 0  0.1875 0.34375 0  0.21875 0.34375 0  0.25 0.34375 0  0.28125 0.34375 0  0.3125 0.34375 0  0.34375 0.34375 0  0.375 0.34375 0  0.40625 0.34375 0  0.4375 0.34375 0  0.46875 0.34375 0  0.5 0.34375 0  0.53125 0.34375 0  0.5625 0.34375 0  0.59375 0.34375 0  0.625 0.34375 0  0.65625 0.34375 0  0.6875 0.34375 0  0.71875 0.34375 0  0.75 0.34375 0  0.78125 0.34375 0  0.8125 0.34375 0  0.84375 0.34375 0  0.875 0.34375 0  0.90625 0.34375 0  0.9375 0.34375 0  0.96875 0.34375 0  1 0.34375 0  0 0.375 0  0.03125 0.375 0  0.0625 0.375 0  0.09375 0.375 0  0.125 0.375 0  0.15625 0.375 0  0.1875 0.375 0  0.21875 0.375 0  0.25 0.375 0  0.28125 0.375 0  0.3125 0.375 0  0.34375 0.375 0  0.375 0.375 0  0.40625 0.375 0  0.4375 0.375 0  0.46875 0.375 0  0.5 0.375 0  0.53125 0.375 0  0.5625 0.375 0  0.59375 0.375 0  0.625 0.375 0  0.65625 0.375 0  0.6875 0.375 0  0.71875 0.375 0  0.75 0.375 0  0.78125 0.375 0  0.8125 0.375 0  0.84375 0.375 0  0.875 0.375 0  0.90625 0.375 0  0.9375 0.375 0  0.96875 0.375 0  1 0.375 0  0 0.40625 0  0.03125 0.40625 0  0.0625 0.40625 0  0.09375 0.40625 0  0.125 0.40625 0  0.15625 0.40625 0  0.1875 0.40625 0  0.21875 0.40625 0  0.25 0.40625 0  0.28125 0.40625 0  0.3125 0.40625 0  0.34375 0.40625 0  0.375 0.40625 0  0.40625 0.40625 0  0.4375 0.40625 0  0.46875 0.40625 0  0.5 0.40625 0  0.53125 0.40625 0  0.5625 0.40625 0  0.59375 0.40625 0  0.625 0.40625 0  0.65625 0.40625 0  0.6875 0.40625 0  0.71875 0.40625 0  0.75 0.40625 0  0.78125 0.40625 0  0.8125 0.40625 0  0.84375 0.40625 0  0.875 0.40625 0  0.90625 0.40625 0  0.9375 0.40625 0  0.96875 0.40625 0  1 0.40625 0  0 0.4375 0  0.03125 0.4375 0  0.0625 0.4375 0  0.09375 0.4375 0  0.125 0.4375 0  0.15625 0.4375 0  0.1875 0.4375 0  0.21875 0.4375 0  0.25 0.4375 0  0.28125 0.4375 0  0.3125 0.4375 0  0.34375 0.4375 0  0.375 0.4375 0  0.40625 0.4375 0  0.4375 0.4375 0  0.46875 0.4375 0  0.5 0.4375 0  0.53125 0.4375 0  0.5625 0.4375 0  0.59375 0.4375 0  0.625 0.4375 0  0.65625 0.4375 0  0.6875 0.4375 0  0.71875 0.4375 0  0.75 0.4375 0  0.78125 0.4375 0  0.8125 0.4375 0  0.84375 0.4375 0  0.875 0.4375 0  0.90625 0.4375 0  0.9375 0.4375 0  0.96875 0.4375 0  1 0.4375 0  0 0.46875 0  0.03125 0.46875 0  0.0625 0.46875 0  0.09375 0.46875 0  0.125 0.46875 0  0.15625 0.46875 0  0.1875 0.46875 0  0.21875 0.46875 0  0.25 0.46875 0  0.28125 0.46875 0  0.3125 0.46875 0  0.34375 0.46875 0  0.375 0.46875 0  0.40625 0.46875 0  0.4375 0.46875 0  0.46875 0.46875 0  0.5 0.46875 0  0.53125 0.46875 0  0.5625 0.46875 0  0.59375 0.46875 0  0.625 0.46875 0  0.65625 0.46875 0  0.6875 0.46875 0  0.71875 0.46875 0  0.75 0.46875 0  0.78125 0.46875 0  0.8125 0.46875 0  0.84375 0.46875 0  0.875 0.46875 0  0.90625 0.46875 0  0.9375 0.46875 0  0.96875 0.46875 0  1 0.46875 0  0 0.5 0  0.03125 0.5 0  0.0625 0.5 0  0.09375 0.5 0  0.125 0.5 0  0.15625 0.5 0  0.1875 0.5 0  0.21875 0.5 0  0.25 0.5 0  0.28125 0.5 0  0.3125 0.5 0  0.34375 0.5 0  0.375 0.5 0  0.40625 0.5 0  0.4375 0.5 0  0.46875 0.5 0  0.5 0.5 0  0.53125 0.5 0  0.5625 0.5 0  0.59375 0.5 0  0.625 0.5 0  0.65625 0.5 0  0.6875 0.5 0  0.71875 0.5 0  0.75 0.5 0  0.78125 0.5 0  0.8125 0.5 0  0.84375 0.5 0  0.875 0.5 0  0.90625 0.5 0  0.9375 0.5 0  0.96875 0.5 0  1 0.5 0  0 0.53125 0  0.03125 0.53125 0  0.0625 0.53125 0  0.09375 0.53125 0  0.125 0.53125 0  0.15625 0.53125 0  0.1875 0.53125 0  0.21875 0.53125 0  0.25 0.53125 0  0.28125 0.53125 0  0.3125 0.53125 0  0.34375 0.53125 0  0.375 0.53125 0  0.40625 0.53125 0  0.4375 0.53125 0  0.46875 0.53125 0  0.5 0.53125 0  0.53125 0.53125 0  0.5625 0.53125 0  0.59375 0.53125 0  0.625 0.53125 0  0.65625 0.53125 0  0.6875 0.53125 0  0.71875 0.53125 0  0.75 0.53125 0  0.78125 0.531
[...]
<PointData  Scalars="u_sol"> 
<DataArray  type="Float64"  Name="u_sol"  format="ascii">-2.0914654959651506e-05  -1.9418091414733643e-04  1.1121178864512230e-04  7.6116754710181588e-04  1.1513784466084184e-03  9.7657791652400574e-04  3.7157411178148532e-03  4.1679369383487849e-04  -1.7266151589269050e-03  1.1744333999873876e-02  2.8296385415613072e-02  3.9938334630928204e-02  4.1796575782540916e-02  2.9018296315719901e-02  4.2147930577013199e-03  -2.4940226422271911e-02  -4.8224018629624839e-02  -6.1702419668411800e-02  -6.3312079827574252e-02  -4.9062217756293318e-02  -2.0275932925479630e-02  1.5707341238531725e-02  4.5640435170872899e-02  5.7546739217209111e-02  5.1748325912782514e-02  3.7030216986614552e-02  1.8186811396315738e-02  4.2833476386277018e-03  2.2989380237416776e-04  -9.9079716854003075e-04  -7.5205116145324791e-04  -3.1969805840134635e-04  -1.2545540176893051e-05  -1.2374447823399959e-04  7.3566599820967490e-04  4.5811391215067852e-03  9.2963383014060177e-03  1.2989818334141045e-02  1.5151988245887316e-02  1.2861496196318602e-02  1.9165620562037022e-02  2.5122786603483362e-02  1.5609337194820653e-03  -5.5627030898892635e-02  -1.3749883245122749e-01  -2.2639655254425287e-01  -3.0492574726857036e-01  -3.6326587950811989e-01  -3.9868060344140804e-01  -4.1350355301254277e-01  -4.0855975218450519e-01  -3.8351433417100023e-01  -3.3894049436938950e-01  -2.7476189590992989e-01  -1.9313440161339618e-01  -1.0191194712632497e-01  -1.7820873089017083e-02  3.8848859206778920e-02  6.0633936671168093e-02  6.0558058156707374e-02  4.7876405030918778e-02  2.7737351765211520e-02  1.2406788732017617e-02  3.9368813123039558e-03  4.8348760694485462e-04  -5.8540028477122982e-05  -6.4385110453546283e-04  2.5558162500121944e-03  9.4567968920010511e-03  1.5354826888539006e-02  1.5499850112582526e-02  1.3274988813260603e-02  1.5968437077927160e-02  -7.0748605266540057e-03  -8.1574610729261227e-02  -1.8902325379330370e-01  -2.9744066925298163e-01  -3.8342825275590953e-01  -4.4064723737383371e-01  -4.7281722174433327e-01  -4.8853297793881550e-01  -4.9547767259973335e-01  -4.9749720395382124e-01  -4.9492080224889645e-01  -4.8733046493473303e-01  -4.7343425813588264e-01  -4.4891775130879946e-01  -4.0654345348917070e-01  -3.3822282806362164e-01  -2.4200460473193003e-01  -1.3334230023162102e-01  -4.4260040322292457e-02  1.4498784416851927e-03  1.8312388588168620e-02  2.5115283010703246e-02  1.9241472932717055e-02  9.3455515577795054e-03  2.6693153024027962e-03  -5.4934706645221043e-04  -1.0616958623447638e-03  5.5711814757684330e-03  1.6056299185388045e-02  1.5953845260602208e-02  1.0927108545337160e-02  3.6976331056170755e-03  -4.5035150780373776e-02  -1.4981050900495371e-01  -2.7204704829980475e-01  -3.7095185189828889e-01  -4.3048222240660716e-01  -4.5647104535365157e-01  -4.6351808673040062e-01  -4.6439334733703280e-01  -4.6428876933916585e-01  -4.6336669751398202e-01  -4.6081996731109665e-01  -4.5798723036778805e-01  -4.5622110066478766e-01  -4.5614965338309976e-01  -4.5828990748483961e-01  -4.5912066527635176e-01  -4.4732068684401344e-01  -4.0403827096126277e-01  -3.1429894637988276e-01  -1.8806656101403685e-01  -6.9714901690847375e-02  -9.2520718443773551e-03  4.3737100364501461e-03  1.1232103023850444e-02  9.9546024027811937e-03  2.8087327225592763e-03  -3.6863954006161758e-04  -2.3521874252738478e-03  1.0142259490832393e-02  1.7048065238198740e-02  9.0110650969759312e-03  -5.8083207436403026e-03  -6.5887452457255205e-02  -1.8200292692728223e-01  -3.0305890189367118e-01  -3.8525900405865798e-01  -4.1984848884172776e-01  -4.2332122464313793e-01  -4.1648244073367507e-01  -4.1056379591925207e-01  -4.0676078686412609e-01  -4.0352702849574662e-01  -4.0054729702559588e-01  -3.9837364488109411e-01  -3.9590324840100111e-01  -3.9247663672668248e-01  -3.8973095473477548e-01  -3.9063766459498483e-01  -3.9945277601154205e-01  -4.1749949367853251e-01  -4.3417454618437523e-01  -4.2154175456924026e-01  -3.4891779078636143e-01  -2.1672522635875466e-01  -7.7151114641554455e-02  -5.3030826081340221e-03  2.7476381956431403e-03  4.9604076400382290e-03  3.4722403662720783e-03  -9.5612189203808499e-04  -1.6406646839798717e-03  1.1928367107378041e-02  9.6371279426052600e-03  -8.9347241778322747e-03  -6.6855460298754318e-02  -1.8206555533663363e-01  -2.9892949030078231e-01  -3.6909487112070921e-01  -3.8764952837960709e-01  -3.8004419637228681e-01  -3.7039671895681758e-01  -3.6672733375329619e-01  -3.6730039917896196e-01  -3.7005733514574396e-01  -3.7406112004255071e-01  -3.7774690425683627e-01  -3.7901292379844281e-01  -3.7776171097499650e-01  -3.7474843170095917e-01  -3.6960330808515252e-01  -3.6208776664296688e-01  -3.5396684420511554e-01  -3.5206337167436025e-01  -3.6638492467573103e-01  -3.9477203284206164e-01  -4.0490547911546348e-01  -3.4888045783973259e-01  -2.1590175174187784e-01  -6.6297229558715351e-02  2.2635903038839031e-03  2.2351664359656753e-03  1.2099292590088896e-03  -5.1352406080801173e-05  -2.0434899382527471e-04  8.1213265840356097e-03  -5.8303981612089452e-03  -5.4253728394634014e-02  -1.5863790565395033e-01  -2.7226874104110366e-01  -3.3895888442692662e-01  -3.5120396735903658e-01  -3.3989343602623406e-01  -3.3198932624780791e-01  -3.3264530319444446e-01  -3.3741109365271749e-01  -3.4313866094070689e-01  -3.4789419574003189e-01  -3.5015010659309748e-01  -3.5000781604588654e-01  -3.4926361958785312e-01  -3.4881442803468282e-01  -3.4856618577800574e-01  -3.4865627085489265e-01  -3.4826868215281648e-01  -3.4453525664307311e-01  -3.3416475369532200e-01  -3.2135968763058614e-01  -3.2363355595682863e-01  -3.5185067437786838e-01  -3.7318153625198058e-01  -3.2363437925311594e-01  -1.8648447361054490e-01  -3.7879333086966796e-02  6.6646133402051486e-03  -6.6328628626001116e-04  1.2652966882257493e-03  1.5621948986654700e-03  -7.7098019316871041e-04  -3.4936073638835309e-02  -1.2120061256197524e-01  -2.2983197013935977e-01  -3.0105398221329771e-01  -3.1575230391792891e-01  -3.0397458174983022e-01  -2.9744723224413083e-01  -3.0076285980470507e-01  -3.0690132266953896e-01  -3.1175323631727292e-01  -3.1360678611523923e-01  -3.1265063326939790e-01  -3.1098774832195647e-01  -3.1021655882791982e-01  -3.0988967058227651e-01  -3.0933894898840109e-01  -3.0863934794196224e-01  -3.0832888697600574e-01  -3.0981095714367696e-01  -3.1419527694622595e-01  -3.1844218066979618e-01  -3.1362222411183582e-01  -2.9706799979741877e-01  -2.9027002621604736e-01  -3.1577239813280822e-01  -3.3766749084718867e-01  -2.7912397121786037e-01  -1.3218809287022634e-01  -3.5913784178437809e-03  5.0527044123627757e-03  -3.5047925573608333e-03  3.5560980631459721e-03  -1.4219096159153670e-02  -7.7622699396232647e-02  -1.7573734711951181e-01  -2.5482582751804589e-01  -2.8035117885346744e-01  -2.7111164046774844e-01  -2.6383595266184628e-01  -2.6786142699578352e-01  -2.7418618580678078e-01  -2.7764886782226955e-01  -2.7773551252385431e-01  -2.7645674074605886e-01  -2.7667520357271413e-01  -2.7857154494505448e-01  -2.8033052537348480e-01  -2.8118619790798222e-01  -2.8127152919135467e-01  -2.8062170442551054e-01  -2.7895106399718905e-01  -2.7602133759119812e-01  -2.7370488110290764e-01  -2.7659459476056686e-01  -2.8480755107209504e-01  -2.8550740664898699e-01  -2.6887593971626017e-01  -2.5990678183204879e-01  -2.8625365190060326e-01  -2.9811371766709771e-01  -2.1454021860719472e-01  -6.1050054117409699e-02  1.1337597229694737e-02  -3.2043525597844663e-03  5.6122788211131359e-03  -3.2857648497788529e-02  -1.1383258420012456e-01  -1.9753099096316198e-01  -2.4021513714135143e-01  -2.3962479557531516e-01  -2.3073816609520592e-01  -2.3327785927221845e-01  -2.3997644325317663e-01  -2.4306214700885123e-01  -2.4280581308554863e-01  -2.4238187994715696e-01  -2.4430096551118707e-01  -2.4728334062910790e-01  -2.4898503074571302e-01  -2.4957343028912776e-01  -2.4993875300060958e-01  -2.5033881185261259e-01  -2.5093272045802567e-01  -2.5178908856282928e-01  -2.5208304722181657e-01  -2.4946405193839155e-01  -2.4392722270492612e-01  -2.4301672155175535e-01  -2.5139173286558514e-01  -2.5330994321366374e-01  -2.3574367974270397e-01  -2.3148861717730129e-01  -2.5997951282228576e-01  -2.4574113979428847e-01  -1.2692319647986475e-01  -1.7897462825785936e-03  2.4343773067950747e-03  6.5061882995541814e-03  -4.8020319431258798e-02  -1.2896330326011679e-01  -1.8848188797508150e-01  -2.0550836663927005e-01  -1.9863109625839084e-01  -1.9762534204905854e-01  -2.0433081568866523e-01  -2.0849838421693112e-01  -2.0864912629668247e-01  -2.0880736591370380e-01  -2.1134819055807758e-01  -2.1425274094852351e-01  -2.1521714016367355e-01  -2.1527139745609122e-01  -2.1564111618135648e-01  -2.1615336086162804e-01  -2.1660740368115414e-01  -2.1688729643840901e-01  -2.1725252185461619e-01  -2.1881445841081976e-01  -2.2167033358731425e-01  -2.2155521659582508e-01  -2.1532144342548573e-01  -2.1261232059246138e-01  -2.2047547908377016e-01  -2.1867286115876547e-01  -1.9994337190023631e-01  -2.0725459525946743e-01  -2.2834470931499715e-01  -1.6538692002042787e-01  -3.2934313157574162e-02  1.2711508318809921e-02  6.4918852472821463e-03  -5.2924275767170438e-02  -1.2287902707374304e-01  -1.6091896097676348e-01  -1.6622621946479210e-01  -1.6251219388044752e-01  -1.6715369955721476e-01  -1.7329019386806976e-01  -1.7481848689321380e-01  -1.7514364497235649e-01  -1.7763057140120558e-01  -1.8051881097149608e-01  -1.8141896279367234e-01  -1.8175343407846464e-01  -1.8300674912286727e-01  -1.8448904671830346e-01  -1.8566605197333441e-01  -1.8654148261663414e-01  -1.8714357509911062e-01  -1.8714237304688169e-01  -1.8626218137777140e-01  -1.8658134038075663e-01  -1.9020939688523852e-01  -1.9143704931839611e-01  -1.8504474816496080e-01  -1.8364687918935310e-01  -1.9062862747156320e-01  -1.8055345025090899e-01  -1.6672251568307533e-01  -1.8590454796168029e-01  -1.7129478544591428e-01  -5.5005866073995616e-02  1.8693505830375066e-02  6.0706771648737770e-03  -4.7808021462149665e-02  -1.0304418013505941e-01  -1.2658987551407674e-01  -1.2907809242126608e-01  -1.2990065375668949e-01  -1.3646175252279499e-01  -1.4071247944376625e-01  -1.4155941443256340e-01  -1.4350852938001471e-01  -1.4653749122955470e-01  -1.4794430192943117e-01  -1.4858556253777422e-01  -1.5024624261195613e-01  -1.5206178368916062e-01  -1.5326034477248587e-01  -1.5426250351717224e-01  -1.5530909556251046e-01  -1.5645010127064291e-01  -1.5787183891884568e-01  -1.5880424527793666e-01  -1.5758684168846945e-01  -1.5688217553924955e-01  -1.6054503737556625e-01  -1.6074811084351112e-01  -1.5411293642786950e-01  -1.5659546502977142e-01  -1.5844283944653978e-01  -1.4038686973938663e-01  -1.4255693754308149e-01  -1.5159130340804874e-01  -6.7137807361563662e-02  1.8653492410053187e-02  5.6462445755375498e-03  -3.6570862005981981e-02  -7.7151091799647367e-02  -9.2276725647433597e-02  -9.5265711065322223e-02  -9.8982241544540245e-02  -1.0519421144723115e-01  -1.0813835362997484e-01  -1.0957668307296260e-01  -1.1234496939632499e-01  -1.1454469462662333e-01  -1.1550667851313660e-01  -1.1706195052991512e-01  -1.1896432958942629e-01  -1.2015479824954756e-01  -1.2114629902883998e-01  -1.2235345022514692e-01  -1.2358573959709725e-01  -1.2472827549682093e-01  -1.2586680289277957e-01  -1.2784095200241818e-01  -1.2992910761195739e-01  -1.2901533053901917e-01  -1.2879365157844311e-01  -1.3259874253814952e-01  -1.2961331252465738e-01  -1.2525440053862430e-01  -1.3078788561304242e-01  -1.2033088249653652e-01  -1.0829781812748257e-01  -1.2235638856489381e-01  -6.9464515311467828e-02  1.5151471774979108e-02  4.9349247981911992e-03  -2.2411576897696284e-02  -5.0340342439843082e-02  -6.0320864957420200e-02  -6.4258032820254246e-02  -6.8864039174573968e-02  -7.3952504116763768e-02  -7.6351121054915400e-02  -7.8369958749979138e-02  -8.0935080554205285e-02  -8.2540480870653493e-02  -8.3835666815880241e-02  -8.5631311480634784e-02  -8.7046570852949118e-02  -8.8159862424642715e-02  -8.9627091231226863e-02  -9.1222220720976258e-02  -9.2748739522576604e-02  -9.4339519984233358e-02  -9.5748485218158028e-02  -9.6754409363853405e-02  -9.8949336528504003e-02  -1.0142627359684485e-01  -1.0062872507770766e-01  -1.0251860556163027e-01  -1.0498956055670658e-01  -9.9068168365085599e-02  -1.0159377419431681e-01  -1.0060399097318114e-01  -8.3401033632046748e-02  -9.3518858933350810e-02  -6.5019843459508217e-02  1.0665940951184090e-02  4.5133785656716156e-03  -8.4853903627886106e-03  -2.4331136777346007e-02  -3.1214555775081095e-02  -3.5026378137092980e-02  -3.9469314670635039e-02  -4.3184646930762703e-02  -4.5418478678461313e-02  -4.7477725312455664e-02  -4.9557495097426033e-02  -5.0957950288294911e-02  -5.2410095661865871e-02  -5.3938462386344865e-02  -5.5172762576991413e-02  -5.6553007018567948e-02  -5.8160620796171007e-02  -5.9724484114532940e-02  -6.1409789619605394e-02  -6.3306706874475788e-02  -6.5496719722363497e-02  -6.7588608752327986e-02  -6.9020508142865977e-02  -7.1874906049060092e-02  -7.3912070944270866e-02  -7.3996206033831946e-02  -7.8413826198548461e-02  -7.6230062778936736e-02  -7.4406318656639436e-02  -7.9726064002800218e-02  -6.4540084526102937e-02  -6.9105998274883798e-02  -5.7883747120897007e-02  6.5781646465761416e-03  1.6791082790445584e-03  5.3965850995879028e-03  -3.1819561093290318e-04  -3.5149511814980697e-03  -7.3351196411545871e-03  -1.0454638276942686e-02  -1.3095631594147094e-02  -1.4952649452991405e-02  -1.6803803028837386e-02  -1.8342473201458955e-02  -1.9634808254962447e-02  -2.0914930950362454e-02  -2.2180501527934743e-02  -2.3406103518563457e-02  -2.4834853294131914e-02  -2.6369314502160048e-02  -2.8031237998443582e-02  -2.9938589234094707e-02  -3.2087225345920296e-02  -3.4450358819852624e-02  -3.7279350234886696e-02  -4.0119126660821208e-02  -4.2613890848935215e-02  -4.6369042986064396e-02  -4.7720103823699317e-02  -5.1228064693548785e-02  -5.4042965267184960e-02  -5.0575489972730273e-02  -5.8141049092259367e-02  -4.9081307059476553e-02  -4.9489871918194935e-02  -5.0064374008215909e-02  3.0066183964747532e-03  -8.0850561609143411e-04  1.9083497726713469e-02  2.2703935745684169e-02  2.3324509430965513e-02  1.9884371927358195e-02  1.7899134430707772e-02  1.6748896361823432e-02  1.5074819948808969e-02  1.3725602959150957e-02  1.2694357920341718e-02  1.1639652507469353e-02  1.0564342523910754e-02  9.5947402770087450e-03  8.4462083694682253e-03  7.1341251402298198e-03  5.6412950174420853e-03  3.8023820172823400e-03  1.5997713698136448e-03  -8.5695007805611776e-04  -3.7240621552248796e-03  -6.7960255273382311e-03  -1.0405762173285536e-02  -1.4098906631470688e-02  -1.8151179345211720e-02  -2.2107047542972793e-02  -2.5207307538092909e-02  -3.1079163991368782e-02  -2.9569942984282758e-02  -3.7010040421956818e-02  -3.5033113465731042e-02  -3.3585313236714938e-02  -4.2197735931766747e-02  -1.7742628524186751e-04  -2.2494337579506813e-03  3.0911719839161782e-02  4.6009845560583934e-02  4.9415700758591627e-02  4.7560364733755293e-02  4.5553951206850803e-02  4.6384182022520551e-02  4.4911477881483641e-02  4.3944558512054220e-02  4.3519729384476874e-02  4.2809714482864247e-02  4.2017702360831785e-02  4.1357918635045163e-02  4.0416709832606916e-02  3.9190406265000095e-02  3.7782169711407770e-02  3.5949046012353041e-02  3.3634646314875755e-02  3.0853658371051664e-02  2.7559018388037159e-02  2.3656906848480253e-02  1.9551683984457571e-02  1.4629529683016755e-02  9.8190748821223115e-03  4.1295619506267183e-03  -6.4167006439388606e-04  -7.3881528545980167e-03  -1.0148002346636688e-02  -1.7097369661599141e-02  -2.1261827345403949e-02  -2.0248116414122899e-02  -3.3621895000284237e-02  -2.1692154905446665e-03  -5.1083475194477045e-03  3.9440968788592462e-02  6.9335931359295860e-02  7.5744226443509907e-02  7.5790671082464192e-02  7.3527035997221962e-02  7.5568309423631963e-02  7.5290199054616785e-02  7.4122866547950236e-02  7.4453497265057192e-02  7.4226530312102176e-02  7.3697693620830201e-02  7.3417947567617492e-02  7.2891860730152386e-02  7.1823263630365106e-02  7.0397705465973653e-02  6.8561980569335476e-02  6.6150472936365792e-02  6.3073632843424612e-02  5.9285942758520969e-02  5.4893941196525381e-02  4.9795787515866212e-02  4.3914533029193653e-02  3.7699082080293218e-02  3.0921254210768464e-02  2.3385003452027632e-02  1.6389424410991314e-02  8.7813040834537909e-03  1.6383299507207246e-03  -7.5217536109711252e-03  -8.2605354056111448e-03  -2.4100674086797415e-02  -1.8927704917378596e-03  -8.2217148605667600e-03  4.3472927762050549e-02  9.1329118816677685e-02  1.0313419342333972e-01  1.0455727472436185e-01  1.0223852493648912e-01  1.0386828700392635e-01  1.0562241686466442e-01  1.0439539600248676e-01  1.0477602205630458e-01  1.0565608731833755e-01  1.0544763625175108e-01  1.0531180610794892e-01  1.0532867048830728e-01  1.0482196650175560e-01  1.0360237300307486e-01  1.0175962442837404e-01  9.9235179550451885e-02  9.5868961612170775e-02  9.1714487573531206e-02  8.6782144526916807e-02  8.0684146263744524e-02  7.3708845824527552e-02  6.6292209933767429e-02  5.7810402453724596e-02  4.7957762910129591e-02  3.9740492853859277e-02  2.8271574505667304e-02  1.9201231920432830e-02  6.4800153583526379e-03  2.7280128548969490e-03  -1.4858482641494005e-02  -1.6565376900497871e-04  -1.0099854422766634e-02  4.1772154236080231e-02  1.0873146807416331e-01  1.3135167204286941e-01  1.3370767936815192e-01  1.3173439456968286e-01  1.3208831732827417e-01  1.3522904996586935e-01  1.3533945726472946e-01  1.3484990288192603e-01  1.3649685734469175e-01  1.3768194773586440e-01  1.3778537805120791e-01  1.3787788482875121e-01  1.3786471233187422e-01  1.3719005453737729e-01  1.3563046114184399e-01  1.3314120424240553e-01  1.2969268205910409e-01  1.2523800301504390e-01  1.1943126766377941e-01  1.1225816722676328e-01  1.0451061027290409e-01  9.5833615612878759e-02  8.4936387101347696e-02  7.3434982109546243e-02  6.3092851885664450e-02  4.8729469700735911e-02  3.5347733672795208e-02  2.1515666363925136e-02  1.1937812801168469e-02  -7.6432819442988579e-03  2.4442620904519349e-04  -9.7490420630332864e-03  3.4146213707255554e-02  1.1652370014385606e-01  1.5811186280396644e-01  1.6446313326010725e-01  1.6232675388165810e-01  1.6133108551524264e-01  1.6419899183609662e-01  1.6696415872321790e-01  1.6681425426874943e-01  1.6756263226930415e-01  1.6998808455089578e-01  1.7169311034954265e-01  1.7227743399531500e-01  1.7237685975701666e-01  1.7195498764407383e-01  1.7067209776110395e-01  1.6827074995955366e-01  1.6458860245043549e-01  1.5949614751294588e-01  1.5292284560885994e-01  1.4533149990086983e-01  1.3695598173876761e-01  1.2599256168520931e-01  1.1265862783102754e-01  1.0023641310840180e-01  8.7393130060068713e-02  6.9206616373340080e-02  5.1339623635269657e-02  3.7229139853018289e-02  1.9771905244079624e-02  -3.2950485350299471e-03  -2.3652452806432107e-03  -6.4723526533377249e-03  2.1064988089589565e-02  1.0864555025474236e-01  1.7666721278106601e-01  1.9501664079949318e-01  1.9258684253135594e-01  1.8999938137719835e-01  1.9110124248525789e-01  1.9496132738817171e-01  1.9751938405328051e-01  1.9826280762550136e-01  2.0014394442083244e-01  2.0321189844731721e-01  2.0566430459703156e-01  2.0689152259142357e-01  2.0703776374888005e-01  2.0609445681312596e-01  2.0390195116443485e-01  2.0025202117724450e-01  1.9512454024029530e-01  1.8862045757106508e-01  1.8069555238709212e-01  1.7023469193458055e-01  1.5633265305608807e-01  1.4211550610861282e-01  1.2952340683984037e-01  1.1230592820128371e-01  8.9349413310607778e-02  6.8653951639783634e-02  5.3111297717083318e-02  2.8116118717766005e-02  -6.4233059880546917e-04  -5.0324643874774594e-03  -1.9107038605081972e-03  5.0729674416719649e-03  8.3445325496344869e-02  1.7637528126154839e-01  2.2064971488313911e-01  2.2522714051699788e-01  2.2100010497181363e-01  2.2020350076711723e-01  2.2331140860787183e-01  2.2816712642937503e-01  2.3174322140226908e-01  2.3401333717763523e-01  2.3676205204227913e-01  2.4005808023402767e-01  2.4275823258063750e-01  2.4415946916595421e-01  2.440395402