<?xml version="1.0"?>
<VTKFile type="UnstructuredGrid"  version="0.1"  >
<UnstructuredGrid>
<Piece  NumberOfPoints="1089" NumberOfCells="1024">
<Points>
<DataArray  type="Float64"  NumberOfComponents="3"  format="ascii">0 0 0  0.03125 0 0  0.0625 0 0  0.09375 0 0  0.125 0 0  0.15625 0 0  0.1875 0 0  0.21875 0 0  0.25 0 0  0.28125 0 0  0.3125 0 0  0.34375 0 0  0.375 0 0  0.40625 0 0  0.4375 0 0  0.46875 0 0  0.5 0 0  0.53125 0 0  0.5625 0 0  0.59375 0 0  0.625 0 0  0.65625 0 0  0.6875 0 0  0.71875 0 0  0.75 0 0  0.78125 0 0  0.8125 0 0  0.84375 0 0  0.875 0 0  0.90625 0 0  0.9375 0 0  0.96875 0 0  1 0 0  0 0.03125 0  0.03125 0.03125 0  0.0625 0.03125 0  0.09375 0.03125 0  0.125 0.03125 0  0.15625 0.03125 0  0.1875 0.03125 0  0.21875 0.03125 0  0.25 0.03125 0  0.28125 0.03125 0  0.3125 0.03125 0  0.34375 0.03125 0  0.375 0.03125 0  0.40625 0.03125 0  0.4375 0.03125 0  0.46875 0.03125 0  0.5 0.03125 0  0.53125 0.03125 0  0.5625 0.03125 0  0.59375 0.03125 0  0.625 0.03125 0  0.65625 0.03125 0  0.6875 0.03125 0  0.71875 0.03125 0  0.75 0.03125 0  0.78125 0.03125 0  0.8125 0.03125 0  0.84375 0.03125 0  0.875 0.03125 0  0.90625 0.03125 0  0.9375 0.03125 0  0.96875 0.03125 0  1 0.03125 0  0 0.0625 0  0.03125 0.0625 0  0.0625 0.0625 0  0.09375 0.0625 0  0.125 0.0625 0  0.15625 0.0625 0  0.1875 0.0625 0  0.21875 0.0625 0  0.25 0.0625 0  0.28125 0.0625 0  0.3125 0.0625 0  0.34375 0.0625 0  0.375 0.0625 0  0.40625 0.0625 0  0.4375 0.0625 0  0.46875 0.0625 0  0.5 0.0625 0  0.53125 0.0625 0  0.5625 0.0625 0  0.59375 0.0625 0  0.625 0.0625 0  0.65625 0.0625 0  0.6875 0.0625 0  0.71875 0.0625 0  0.75 0.0625 0  0.78125 0.0625 0  0.8125 0.0625 0  0.84375 0.0625 0  0.875 0.0625 0  0.90625 0.0625 0  0.9375 0.0625 0  0.96875 0.0625 0  1 0.0625 0  0 0.09375 0  0.03125 0.09375 0  0.0625 0.09375 0  0.09375 0.09375 0  0.125 0.09375 0  0.15625 0.09375 0  0.1875 0.09375 0  0.21875 0.09375 0  0.25 0.09375 0  0.28125 0.09375 0  0.3125 0.09375 0  0.34375 0.09375 0  0.375 0.09375 0  0.40625 0.09375 0  0.4375 0.09375 0  0.46875 0.09375 0  0.5 0.09375 0  0.53125 0.09375 0  0.5625 0.09375 0  0.59375 0.09375 0  0.625 0.09375 0  0.65625 0.09375 0  0.6875 0.09375 0  0.71875 0.09375 0  0.75 0.09375 0  0.78125 0.09375 0  0.8125 0.09375 0  0.84375 0.09375 0  0.875 0.09375 0  0.90625 0.09375 0  0.9375 0.09375 0  0.96875 0.09375 0  1 0.09375 0  0 0.125 0  0.03125 0.125 0  0.0625 0.125 0  0.09375 0.125 0  0.125 0.125 0  0.15625 0.125 0  0.1875 0.125 0  0.21875 0.125 0  0.25 0.125 0  0.28125 0.125 0  0.3125 0.125 0  0.34375 0.125 0  0.375 0.125 0  0.40625 0.125 0  0.4375 0.125 0  0.46875 0.125 0  0.5 0.125 0  0.53125 0.125 0  0.5625 0.125 0  0.59375 0.125 0  0.625 0.125 0  0.65625 0.125 0  0.6875 0.125 0  0.71875 0.125 0  0.75 0.125 0  0.78125 0.125 0  0.8125 0.125 0  0.84375 0.125 0  0.875 0.125 0  0.90625 0.125 0  0.9375 0.125 0  0.96875 0.125 0  1 0.125 0  0 0.15625 0  0.03125 0.15625 0  0.0625 0.15625 0  0.09375 0.15625 0  0.125 0.15625 0  0.15625 0.15625 0  0.1875 0.15625 0  0.21875 0.15625 0  0.25 0.15625 0  0.28125 0.15625 0  0.3125 0.15625 0  0.34375 0.15625 0  0.375 0.15625 0  0.40625 0.15625 0  0.4375 0.15625 0  0.46875 0.15625 0  0.5 0.15625 0  0.53125 0.15625 0  0.5625 0.15625 0  0.59375 0.15625 0  0.625 0.15625 0  0.65625 0.15625 0  0.6875 0.15625 0  0.71875 0.15625 0  0.75 0.15625 0  0.78125 0.15625 0  0.8125 0.15625 0  0.84375 0.15625 0  0.875 0.15625 0  0.90625 0.15625 0  0.9375 0.15625 0  0.96875 0.15625 0  1 0.15625 0  0 0.1875 0  0.03125 0.1875 0  0.0625 0.1875 0  0.09375 0.1875 0  0.125 0.1875 0  0.15625 0.1875 0  0.1875 0.1875 0  0.21875 0.1875 0  0.25 0.1875 0  0.28125 0.1875 0  0.3125 0.1875 0  0.34375 0.1875 0  0.375 0.1875 0  0.40625 0.1875 0  0.4375 0.1875 0  0.46875 0.1875 0  0.5 0.1875 0  0.53125 0.1875 0  0.5625 0.1875 0  0.59375 0.1875 0  0.625 0.1875 0  0.65625 0.1875 0  0.6875 0.1875 0  0.71875 0.1875 0  0.75 0.1875 0  0.78125 0.1875 0  0.8125 0.1875 0  0.84375 0.1875 0  0.875 0.1875 0  0.90625 0.1875 0  0.9375 0.1875 0  0.96875 0.1875 0  1 0.1875 0  0 0.21875 0  0.03125 0.21875 0  0.0625 0.21875 0  0.09375 0.21875 0  0.125 0.21875 0  0.15625 0.21875 0  0.1875 0.21875 0  0.21875 0.21875 0  0.25 0.21875 0  0.28125 0.21875 0  0.3125 0.21875 0  0.34375 0.21875 0  0.375 0.21875 0  0.40625 0.21875 0  0.4375 0.21875 0  0.46875 0.21875 0  0.5 0.21875 0  0.53125 0.21875 0  0.5625 0.21875 0  0.59375 0.21875 0  0.625 0.21875 0  0.65625 0.21875 0  0.6875 0.21875 0  0.71875 0.21875 0  0.75 0.21875 0  0.78125 0.21875 0  0.8125 0.21875 0  0.84375 0.21875 0  0.875 0.21875 0  0.90625 0.21875 0  0.9375 0.21875 0  0.96875 0.21875 0  1 0.21875 0  0 0.25 0  0.03125 0.25 0  0.0625 0.25 0  0.09375 0.25 0  0.125 0.25 0  0.15625 0.25 0  0.1875 0.25 0  0.21875 0.25 0  0.25 0.25 0  0.28125 0.25 0  0.3125 0.25 0  0.34375 0.25 0  0.375 0.25 0  0.40625 0.25 0  0.4375 0.25 0  0.46875 0.25 0  0.5 0.25 0  0.53125 0.25 0  0.5625 0.25 0  0.59375 0.25 0  0.625 0.25 0  0.65625 0.25 0  0.6875 0.25 0  0.71875 0.25 0  0.75 0.25 0  0.78125 0.25 0  0.8125 0.25 0  0.84375 0.25 0  0.875 0.25 0  0.90625 0.25 0  0.9375 0.25 0  0.96875 0.25 0  1 0.25 0  0 0.28125 0  0.03125 0.28125 0  0.0625 0.28125 0  0.09375 0.28125 0  0.125 0.28125 0  0.15625 0.28125 0  0.1875 0.28125 0  0.21875 0.28125 0  0.25 0.28125 0  0.28125 0.28125 0  0.3125 0.28125 0  0.34375 0.28125 0  0.375 0.28125 0  0.40625 0.28125 0  0.4375 0.28125 0  0.46875 0.28125 0  0.5 0.28125 0  0.53125 0.28125 0  0.5625 0.28125 0  0.59375 0.28125 0  0.625 0.28125 0  0.65625 0.28125 0  0.6875 0.28125 0  0.71875 0.28125 0  0.75 0.28125 0  0.78125 0.28125 0  0.8125 0.28125 0  0.84375 0.28125 0  0.875 0.28125 0  0.90625 0.28125 0  0.9375 0.28125 0  0.96875 0.28125 0  1 0.28125 0  0 0.3125 0  0.03125 0.3125 0  0.0625 0.3125 0  0.09375 0.3125 0  0.125 0.3125 0  0.15625 0.3125 0  0.1875 0.3125 0  0.21875 0.3125 0  0.25 0.3125 0  0.28125 0.3125 0  0.3125 0.3125 0  0.34375 0.3125 0  0.375 0.3125 0  0.40625 0.3125 0  0.4375 0.3125 0  0.46875 0.3125 0  0.5 0.3125 0  0.53125 0.3125 0  0.5625 0.3125 0  0.59375 0.3125 0  0.625 0.3125 0  0.65625 0.3125 0  0.6875 0.3125 0  0.71875 0.3125 0  0.75 0.3125 0  0.78125 0.3125 0  0.8125 0.3125 0  0.84375 0.3125 0  0.875 0.3125 0  0.90625 0.3125 0  0.9375 0.3125 0  0.96875 0.3125 0  1 0.3125 0  0 0.34375 0  0.03125 0.34375 0  0.0625 0.34375 0  0.09375 0.34375 0  0.125 0.34375 0  0.15625 0.34375 0  0.1875 0.34375 0  0.21875 0.34375 0  0.25 0.34375 0  0.28125 0.34375 0  0.3125 0.34375 0  0.34375 0.34375 0  0.375 0.34375 0  0.40625 0.34375 0  0.4375 0.34375 0  0.46875 0.34375 0  0.5 0.34375 0  0.53125 0.34375 0  0.5625 0.34375 0  0.59375 0.34375 0  0.625 0.34375 0  0.65625 0.34375 0  0.6875 0.34375 0  0.71875 0.34375 0  0.75 0.34375 0  0.78125 0.34375 0  0.8125 0.34375 0  0.84375 0.34375 0  0.875 0.34375 0  0.90625 0.34375 0  0.9375 0.34375 0  0.96875 0.34375 0  1 0.34375 0  0 0.375 0  0.03125 0.375 0  0.0625 0.375 0  0.09375 0.375 0  0.125 0.375 0  0.15625 0.375 0  0.1875 0.375 0  0.21875 0.375 0  0.25 0.375 0  0.28125 0.375 0  0.3125 0.375 0  0.34375 0.375 0  0.375 0.375 0  0.40625 0.375 0  0.4375 0.375 0  0.46875 0.375 0  0.5 0.375 0  0.53125 0.375 0  0.5625 0.375 0  0.59375 0.375 0  0.625 0.375 0  0.65625 0.375 0  0.6875 0.375 0  0.71875 0.375 0  0.75 0.375 0  0.78125 0.375 0  0.8125 0.375 0  0.84375 0.375 0  0.875 0.375 0  0.90625 0.375 0  0.9375 0.375 0  0.96875 0.375 0  1 0.375 0  0 0.40625 0  0.03125 0.40625 0  0.0625 0.40625 0  0.09375 0.40625 0  0.125 0.40625 0  0.15625 0.40625 0  0.1875 0.40625 0  0.21875 0.40625 0  0.25 0.40625 0  0.28125 0.40625 0  0.3125 0.40625 0  0.34375 0.40625 0  0.375 0.40625 0  0.40625 0.40625 0  0.4375 0.40625 0  0.46875 0.40625 0  0.5 0.40625 0  0.53125 0.40625 0  0.5625 0.40625 0  0.59375 0.40625 0  0.625 0.40625 0  0.65625 0.40625 0  0.6875 0.40625 0  0.71875 0.40625 0  0.75 0.40625 0  0.78125 0.40625 0  0.8125 0.40625 0  0.84375 0.40625 0  0.875 0.40625 0  0.90625 0.40625 0  0.9375 0.40625 0  0.96875 0.40625 0  1 0.40625 0  0 0.4375 0  0.03125 0.4375 0  0.0625 0.4375 0  0.09375 0.4375 0  0.125 0.4375 0  0.15625 0.4375 0  0.1875 0.4375 0  0.21875 0.4375 0  0.25 0.4375 0  0.28125 0.4375 0  0.3125 0.4375 0  0.34375 0.4375 0  0.375 0.4375 0  0.40625 0.4375 0  0.4375 0.4375 0  0.46875 0.4375 0  0.5 0.4375 0  0.53125 0.4375 0  0.5625 0.4375 0  0.59375 0.4375 0  0.625 0.4375 0  0.65625 0.4375 0  0.6875 0.4375 0  0.71875 0.4375 0  0.75 0.4375 0  0.78125 0.4375 0  0.8125 0.4375 0  0.84375 0.4375 0  0.875 0.4375 0  0.90625 0.4375 0  0.9375 0.4375 0  0.96875 0.4375 0  1 0.4375 0  0 0.46875 0  0.03125 0.46875 0  0.0625 0.46875 0  0.09375 0.46875 0  0.125 0.46875 0  0.15625 0.46875 0  0.1875 0.46875 0  0.21875 0.46875 0  0.25 0.46875 0  0.28125 0.46875 0  0.3125 0.46875 0  0.34375 0.46875 0  0.375 0.46875 0  0.40625 0.46875 0  0.4375 0.46875 0  0.46875 0.46875 0  0.5 0.46875 0  0.53125 0.46875 0  0.5625 0.46875 0  0.59375 0.46875 0  0.625 0.46875 0  0.65625 0.46875 0  0.6875 0.46875 0  0.71875 0.46875 0  0.75 0.46875 0  0.78125 0.46875 0  0.8125 0.46875 0  0.84375 0.46875 0  0.875 0.46875 0  0.90625 0.46875 0  0.9375 0.46875 0  0.96875 0.46875 0  1 0.46875 0  0 0.5 0  0.03125 0.5 0  0.0625 0.5 0  0.09375 0.5 0  0.125 0.5 0  0.15625 0.5 0  0.1875 0.5 0  0.21875 0.5 0  0.25 0.5 0  0.28125 0.5 0  0.3125 0.5 0  0.34375 0.5 0  0.375 0.5 0  0.40625 0.5 0  0.4375 0.5 0  0.46875 0.5 0  0.5 0.5 0  0.53125 0.5 0  0.5625 0.5 0  0.59375 0.5 0  0.625 0.5 0  0.65625 0.5 0  0.6875 0.5 0  0.71875 0.5 0  0.75 0.5 0  0.78125 0.5 0  0.8125 0.5 0  0.84375 0.5 0  0.875 0.5 0  0.90625 0.5 0  0.9375 0.5 0  0.96875 0.5 0  1 0.5 0  0 0.53125 0  0.03125 0.53125 0  0.0625 0.53125 0  0.09375 0.53125 0  0.125 0.53125 0  0.15625 0.53125 0  0.1875 0.53125 0  0.21875 0.53125 0  0.25 0.53125 0  0.28125 0.53125 0  0.3125 0.53125 0  0.34375 0.53125 0  0.375 0.53125 0  0.40625 0.53125 0  0.4375 0.53125 0  0.46875 0.53125 0  0.5 0.53125 0  0.53125 0.53125 0  0.5625 0.53125 0  0.59375 0.53125 0  0.625 0.53125 0  0.65625 0.53125 0  0.6875 0.53125 0  0.71875 0.53125 0  0.75 0.53125 0  0.78125 0.531
[...]
<PointData  Scalars="v_sol"> 
<DataArray  type="Float64"  Name="v_sol"  format="ascii">1.2266589138158169e-05  1.4512879925762608e-04  5.0389770057121888e-04  3.0025402183865666e-04  5.7962362506601872e-04  -5.4583597952287378e-05  -5.5776961060588970e-04  1.7025780376544355e-03  1.6797827379567444e-03  -1.4491785828369399e-03  -6.8610130840015089e-03  -1.0657183951882122e-02  -1.0807523449643443e-02  -8.2172194596986554e-03  -4.4367921277813039e-03  -1.7947185723079149e-03  3.1151083325974623e-04  3.8205366909081469e-03  5.0337797224918115e-03  5.7215336779876929e-03  6.5599538443069580e-03  7.3761885987801241e-03  7.9653373119335166e-03  6.5751818501927888e-03  4.3659258049127828e-03  2.7254210869575489e-04  -1.0006060269686851e-03  -2.7559023806279490e-03  -2.7267380293937841e-03  -9.5476067657663708e-04  -6.2709421472557252e-04  -1.0449460937960226e-05  -1.6710868883841539e-05  2.6154729489432439e-04  -9.0599557801209992e-04  -2.5467585855126255e-03  -2.1452729064064227e-03  -1.8450163984172685e-03  -4.9184696028386392e-04  8.6260635102120218e-05  -2.3764208392984504e-03  -5.4807322582616797e-03  2.9641684068013588e-03  2.1898697215557723e-02  3.6668167414444210e-02  4.5173446447473641e-02  4.6211318191782320e-02  4.0159411731430866e-02  2.8667690597182889e-02  1.3377305785845506e-02  -3.8431613051269067e-03  -2.1534970635689998e-02  -3.9888074236440377e-02  -5.5184846420572600e-02  -6.1893701285218615e-02  -5.4170064430802689e-02  -3.2592326062939644e-02  -8.8857819517261880e-03  9.0202454099441547e-03  1.5582190358714179e-02  1.5228846431162910e-02  1.1012024529636915e-02  5.2578471409408193e-03  2.1733438109786179e-03  3.1869888864267151e-04  -2.9093357693571085e-04  5.3672917643881257e-04  -4.9403693516055260e-03  -8.5022547296512499e-03  -6.9219738919419340e-03  -2.1150235382531558e-03  -5.7079263447331816e-04  -2.0488015381328055e-03  7.4840347164720766e-03  4.4372893344830133e-02  8.7858251882824007e-02  1.1697522749136002e-01  1.2564051002018251e-01  1.1546775146126093e-01  9.4234539851838439e-02  6.8276170397080477e-02  4.1097307940335295e-02  1.3922435502295091e-02  -1.3989016295280286e-02  -4.4643611469509910e-02  -7.7543390648899799e-02  -1.1073011747267046e-01  -1.3773561762838163e-01  -1.4714723494465104e-01  -1.2767654371403364e-01  -8.0175551888130914e-02  -2.7558276286303165e-02  5.9761030087823706e-03  1.7874661522360561e-02  2.1562986835663378e-02  1.8011192858920031e-02  9.4250880945691111e-03  3.8805066924944556e-03  -5.8900355505410058e-05  2.4646249444073963e-04  -1.3306013363632808e-02  -1.6069010639915286e-02  -6.1587692167381324e-03  1.0008184288378748e-03  3.9700596510831125e-03  3.4603662565686852e-02  9.9147926483296706e-02  1.5966544407036148e-01  1.9091980177385848e-01  1.8999301210657715e-01  1.6699225986559565e-01  1.3511222537209039e-01  1.0246228213734503e-01  7.1719505867699596e-02  4.2351603118012705e-02  1.3020417179741761e-02  -1.7214954151399398e-02  -4.8740918414980558e-02  -8.3707789653946499e-02  -1.2302806776977562e-01  -1.6525596151453706e-01  -2.0298453619363077e-01  -2.2002234301927898e-01  -1.9750939247935040e-01  -1.3102701579877060e-01  -5.0202655995977501e-02  7.2439494248124111e-04  1.5623325638010079e-02  2.0260896281654707e-02  1.7679985375014522e-02  9.5695960093533771e-03  5.7396019546908242e-04  -1.4034409742049994e-03  -2.7200042286762101e-02  -1.8307758641508277e-02  1.6932626460725696e-03  1.2434987275236941e-02  5.9672938438478942e-02  1.4626026327327324e-01  2.1975163133603082e-01  2.4903956699207633e-01  2.3723453367518804e-01  2.0416805220103881e-01  1.6679712651146064e-01  1.3198703192005604e-01  9.9891133335399174e-02  6.9156864394029169e-02  3.9151835879871963e-02  9.6932349904530618e-03  -1.9816406381594522e-02  -5.0624050622609294e-02  -8.2671072254047878e-02  -1.1686402701789764e-01  -1.5530396521705747e-01  -2.0009110838723937e-01  -2.4713843805058541e-01  -2.7707576547007456e-01  -2.5964761821262988e-01  -1.7896787591678021e-01  -6.7708528237144572e-02  3.2949970292737779e-03  1.6473653025701890e-02  1.9448742043087129e-02  1.5246655390202007e-02  1.4437336514936741e-03  -6.8470941218194727e-03  -4.1885884177227557e-02  -9.0664161317321624e-03  1.7401288463597418e-02  7.2658933626603250e-02  1.7624563058982559e-01  2.6450741874178252e-01  2.9472909682134713e-01  2.7483765703308916e-01  2.3504053293924615e-01  1.9587072445766371e-01  1.6174128468214030e-01  1.3027475450230072e-01  9.9717803204635982e-02  6.9650011512109172e-02  3.9656672407072574e-02  8.9954524621060992e-03  -2.2711195347199023e-02  -5.4937447371737759e-02  -8.7578828157429428e-02  -1.1986251375952955e-01  -1.5113310682588205e-01  -1.8370284921555471e-01  -2.2475542127605644e-01  -2.7782604776997172e-01  -3.2191952526698808e-01  -3.1058970511898404e-01  -2.1321848351683098e-01  -7.0161073330590934e-02  1.3761740167956166e-02  1.7266521407461450e-02  1.9761908231655131e-02  1.3092261511895450e-03  -1.8918267104988458e-02  -4.6119432536272813e-02  8.6687845438832463e-03  7.0128331023490545e-02  1.8389271352867401e-01  2.9178201820732769e-01  3.3190478655448608e-01  3.0928721088812144e-01  2.6544443359425179e-01  2.2650108592371393e-01  1.9447958320414310e-01  1.6462669400130350e-01  1.3477359854730109e-01  1.0437364044594433e-01  7.3106623083041902e-02  4.1011385998821787e-02  8.6074110294446747e-03  -2.3808832133133086e-02  -5.6878578374940307e-02  -9.1002341162794542e-02  -1.2608430646048374e-01  -1.6053791638279230e-01  -1.9084576106320575e-01  -2.1681913334675038e-01  -2.5028968745018049e-01  -3.0577407036272747e-01  -3.6092849557307460e-01  -3.4743946307149465e-01  -2.2137421778618910e-01  -4.7439506055135902e-02  2.7566158894633916e-02  1.5549677989711070e-02  6.1934757057307867e-03  -2.9619286957408453e-02  -3.8637497593924701e-02  4.9807110818884073e-02  1.6651757249875895e-01  2.9659427558166152e-01  3.6048498409327262e-01  3.4417476623484761e-01  2.9758730518954041e-01  2.5857656648777327e-01  2.2864347284474293e-01  1.9995684767707897e-01  1.6985147270410766e-01  1.3797382818028106e-01  1.0497335004474846e-01  7.2068866960152231e-02  3.9888101379546036e-02  8.0220244849072558e-03  -2.4242840183199731e-02  -5.6883307179328477e-02  -8.9910844666805559e-02  -1.2397586611739267e-01  -1.6032296136741694e-01  -1.9826822236278202e-01  -2.3109545363435557e-01  -2.5307355741732385e-01  -2.7980101609686220e-01  -3.3829416909623039e-01  -3.9897619157880165e-01  -3.6466844803357507e-01  -1.9034808284433810e-01  7.6315227944917475e-05  2.8258708568642890e-02  -2.9493465281955726e-04  -3.5051743276391212e-02  -1.3143884750125219e-02  1.2499596251401406e-01  2.7216531222361251e-01  3.7286099212155377e-01  3.7936153575549825e-01  3.3266712363037604e-01  2.9095531149041015e-01  2.6248902012048231e-01  2.3474644217443294e-01  2.0396465139117054e-01  1.7073003912970891e-01  1.3688266146018765e-01  1.0425955019153287e-01  7.2566145401069135e-02  4.0611949169912294e-02  8.0639345459565682e-03  -2.4829512208062947e-02  -5.8060297784584582e-02  -9.1385765931931401e-02  -1.2418013157137232e-01  -1.5666561785112310e-01  -1.9204698008585427e-01  -2.3273861805631141e-01  -2.6917933994179549e-01  -2.8853100947313787e-01  -3.1262317902925335e-01  -3.7943728468493160e-01  -4.3381741850534933e-01  -3.4602684362797442e-01  -1.0824440851022830e-01  4.3650510109022489e-02  -5.0699555586479813e-03  -3.3478789922764415e-02  3.9723868451328234e-02  2.1579830025625429e-01  3.5628253206970290e-01  4.0652486720778575e-01  3.7261035152383692e-01  3.2412633921222395e-01  2.9474808747705750e-01  2.6894046153624557e-01  2.3785290158231726e-01  2.0387779051967941e-01  1.6997464868967063e-01  1.3803403909728426e-01  1.0674627223262842e-01  7.4436615653798638e-02  4.1534338640460480e-02  8.5350746005955786e-03  -2.4664937731332350e-02  -5.8159661837555450e-02  -9.2301850270436997e-02  -1.2698734711817666e-01  -1.6048293092053847e-01  -1.9130060518113423e-01  -2.2462939867580781e-01  -2.6727837121570702e-01  -3.0545622398484334e-01  -3.2067426352685907e-01  -3.5029329986281166e-01  -4.3063758772433203e-01  -4.4886801555689188e-01  -2.5953481831704922e-01  8.4500700305912349e-03  1.9624296205499492e-02  -1.8399817196890520e-02  1.1260292902071289e-01  2.9992854499015287e-01  4.0931549662622735e-01  4.1278328024502881e-01  3.6301755036903138e-01  3.2522977877161041e-01  3.0178960040981967e-01  2.7239377602013343e-01  2.3772332001545049e-01  2.0381800984922704e-01  1.7223259042625630e-01  1.4094344388464886e-01  1.0803226409418502e-01  7.4712563099898543e-02  4.1818913651153727e-02  8.8898091722737719e-03  -2.4219008355351190e-02  -5.7542365120391500e-02  -9.1048953390192880e-02  -1.2547080291902063e-01  -1.6174544115066392e-01  -1.9699043787180007e-01  -2.2679642347158691e-01  -2.5916333412617670e-01  -3.0461724814688418e-01  -3.3984776349986190e-01  -3.5006246204234798e-01  -4.0058399534983591e-01  -4.8296408413363956e-01  -3.9926113298168181e-01  -8.1382045891717783e-02  5.1327072806191552e-02  8.1098304736195916e-03  1.9122660051592774e-01  3.6603817272893074e-01  4.3762981922033117e-01  4.0924480545208752e-01  3.5977907114108743e-01  3.3164906801646604e-01  3.0701554460039154e-01  2.7299613083832069e-01  2.3792352706219025e-01  2.0637930088028414e-01  1.7511550678118179e-01  1.4181799342577037e-01  1.0824941453172249e-01  7.5567135021506276e-02  4.2803919204324206e-02  9.6785214377665182e-03  -2.3703156619255317e-02  -5.7407224010800798e-02  -9.1213127147003151e-02  -1.2454184514943520e-01  -1.5856389739963089e-01  -1.9617804220492949e-01  -2.3301319538499851e-01  -2.6171598736330254e-01  -2.9637894638982981e-01  -3.4523072950539968e-01  -3.6935999355659516e-01  -3.8502548062766745e-01  -4.7157641177203891e-01  -4.9303974677328211e-01  -2.0807817024496375e-01  7.5713016106655706e-02  3.7223185215276677e-02  2.6394239810946707e-01  4.1310052901598354e-01  4.5201397370213997e-01  4.0599684787099360e-01  3.6249199875050214e-01  3.3874686911716922e-01  3.0971405319877121e-01  2.7329920993591927e-01  2.4019599134786399e-01  2.0942031094923819e-01  1.7621375025873692e-01  1.4230140250375395e-01  1.0977885484156510e-01  7.7222333401357882e-02  4.4042941175322946e-02  1.0720351938810949e-02  -2.2761850646202370e-02  -5.6489669491538011e-02  -9.0797762164230911e-02  -1.2551773634993624e-01  -1.5889776672095798e-01  -1.9260242789411902e-01  -2.3189337449608555e-01  -2.6865487058851684e-01  -2.9611358030685825e-01  -3.3888099921261716e-01  -3.8498781480669586e-01  -3.9375455797353909e-01  -4.4789036218881567e-01  -5.3898244675602480e-01  -3.4181377520060496e-01  8.4451172141611880e-02  6.0520600493750701e-02  3.2411054166163483e-01  4.4497447811676261e-01  4.6034655677461422e-01  4.0600390293063304e-01  3.6805811579197356e-01  3.4455317815012326e-01  3.1120188277714300e-01  2.7482110526512055e-01  2.4328504345624447e-01  2.1123887152655535e-01  1.7691514051561155e-01  1.4396030239999952e-01  1.1165283019735933e-01  7.8377624407226912e-02  4.5027069884422906e-02  1.1820112918319022e-02  -2.1636778044732647e-02  -5.5302820479854194e-02  -8.9141167825471074e-02  -1.2399224850869775e-01  -1.5984671290334293e-01  -1.9332778345544244e-01  -2.2792169683091995e-01  -2.6969652033228880e-01  -3.0295328603599087e-01  -3.3347167239999109e-01  -3.8799724029615829e-01  -4.1390933837925076e-01  -4.3471940269758735e-01  -5.4916725476457018e-01  -4.5895877028265863e-01  7.0871272431300300e-02  7.3035502181670195e-02  3.6916764672806529e-01  4.6587357582934208e-01  4.6658976876670044e-01  4.0856855971545519e-01  3.7408387065609666e-01  3.4886348746010504e-01  3.1270627996269124e-01  2.7721628569820200e-01  2.4587899839441221e-01  2.1240729508281248e-01  1.7829100490648919e-01  1.4589147653382903e-01  1.1293834927730653e-01  7.9431324947441512e-02  4.6413169804241886e-02  1.3240813277553783e-02  -2.0271344432581169e-02  -5.4031197367404180e-02  -8.8048673268859942e-02  -1.2198582753929726e-01  -1.5745390827985520e-01  -1.9421300329813340e-01  -2.2742051092359084e-01  -2.6563308070044511e-01  -3.0816239452290278e-01  -3.3536132725524131e-01  -3.8215582049702146e-01  -4.3184513503285521e-01  -4.3678466468574606e-01  -5.3972852292916795e-01  -5.5084482632071829e-01  3.9721157843117652e-02  7.2986271592769630e-02  3.9870342009176213e-01  4.7903273671848723e-01  4.7164739370974224e-01  4.1240212167612361e-01  3.7916808656025558e-01  3.5215593754629537e-01  3.1448932652111450e-01  2.7966175030478485e-01  2.4781309595166007e-01  2.1363966339712495e-01  1.7994027723897268e-01  1.4742718935881946e-01  1.1407604951927337e-01  8.0875708547238676e-02  4.8046526261521352e-02  1.4808881335377132e-02  -1.8584604093097427e-02  -5.2181739207619302e-02  -8.6327731607184779e-02  -1.2078037814820794e-01  -1.5502568412768725e-01  -1.9170058329587911e-01  -2.2830304502320170e-01  -2.6219052500276796e-01  -3.0709314482849737e-01  -3.4194367654539048e-01  -3.7500828281660742e-01  -4.4041019238608214e-01  -4.4994881491058553e-01  -5.2214415087041033e-01  -6.1726289855011718e-01  -2.9516982445136875e-03  6.3171554140778921e-02  4.1181688934923744e-01  4.8596552822744271e-01  4.7576688220672153e-01  4.1611432982200114e-01  3.8296004416533758e-01  3.5460600881955590e-01  3.1639243851475729e-01  2.8166418133281224e-01  2.4935689651486065e-01  2.1491396843548641e-01  1.8141179496009882e-01  1.4869605318820511e-01  1.1535636087688980e-01  8.2427747345370325e-02  4.9603340158076964e-02  1.6471946377765275e-02  -1.6681633352767577e-02  -5.0054248986617922e-02  -8.3841429957117686e-02  -1.1832713362985826e-01  -1.5313681561692460e-01  -1.8833760737943564e-01  -2.2649351699987585e-01  -2.6126609042737864e-01  -3.0165379353534061e-01  -3.4697381330349125e-01  -3.7168800847454619e-01  -4.3846406199471250e-01  -4.6783697987655537e-01  -5.0251782992218907e-01  -6.6172536557371064e-01  -5.2223716670188193e-02  4.5643147482975745e-02  4.0822481532085825e-01  4.8732780049477542e-01  4.7866298486649916e-01  4.1935201900829289e-01  3.8506902683527811e-01  3.5638293824124972e-01  3.1813358635934541e-01  2.8309660935170283e-01  2.5055064204994631e-01  2.1610777101329931e-01  1.8255721176655451e-01  1.4981863649840207e-01  1.1664705594501587e-01  8.3872065419986305e-02  5.1215038537960882e-02  1.8395097843060104e-02  -1.4497155430306604e-02  -4.7622998552970267e-02  -8.1101662786784698e-02  -1.1518656262141887e-01  -1.4986103446995441e-01  -1.8519052583989701e-01  -2.2235814420616942e-01  -2.5972494485160597e-01  -2.9626093668705678e-01  -3.4611792766358285e-01  -3.7273793259346039e-01  -4.2868918049676796e-01  -4.8448495285751186e-01  -4.8434090980359618e-01  -6.8723700701935997e-01  -1.0564599482766993e-01  2.0245504065658049e-02  3.8819046710186073e-01  4.8428409682853485e-01  4.7863767745713148e-01  4.2326623978632605e-01  3.8497096215732240e-01  3.5756800762975050e-01  3.1962719237074316e-01  2.8394254666749452e-01  2.5129239287975474e-01  2.1711192858194042e-01  1.8339136891161362e-01  1.5071262572005092e-01  1.1784665386483535e-01  8.5190102126986245e-02  5.2838956961440683e-02  2.0467588455707664e-02  -1.2047144133413540e-02  -4.4796336955845541e-02  -7.7762464866013542e-02  -1.1159691471048352e-01  -1.4574828585966240e-01  -1.8077547974851549e-01  -2.1780314647725360e-01  -2.5508850959906981e-01  -2.9196799050604583e-01  -3.4020331305339702e-01  -3.7401018571944961e-01  -4.1625092584751205e-01  -4.9470432132625064e-01  -4.7004980152047299e-01  -6.9643886754676543e-01  -1.6043574332935495e-01  -7.1826278491706587e-03  3.4955287653492617e-01  4.7605688274252367e-01  4.7570189787105105e-01  4.2732016501747166e-01  3.8400093299380178e-01  3.5706921629657606e-01  3.2130812903643774e-01  2.8417659982536353e-01  2.5147955516937437e-01  2.1781597670480124e-01  1.8390914603363964e-01  1.5123862431811608e-01  1.1885494108758904e-01  8.6479356319900974e-02  5.4416397670113456e-02  2.2557068418334023e-02  -9.4195187018943256e-03  -4.1570005866629421e-02  -7.3902506227541076e-02  -1.0717527804925311e-01  -1.4086494757064730e-01  -1.7507846654435757e-01  -2.1228661432398641e-01  -2.4841878596769498e-01  -2.8603490701358464e-01  -3.3312055208453023e-01  -3.6991903501688744e-01  -4.0627025548854895e-01  -4.9457589756011028e-01  -4.6144645615600638e-01  -6.9292473133704957e-01  -2.1067698841432525e-01  -2.8440121055277757e-02  2.9099317041830663e-01  4.5861665645494237e-01  4.7119812881719192e-01  4.2999560384236118e-01  3.8416052970186698e-01  3.5444116692854122e-01  3.2255725491517023e-01  2.8456587333359717e-01  2.5071527738392180e-01  2.1808009913786769e-01  1.8426612565931241e-01  1.5131524045259925e-01  1.1935200393890663e-01  8.7598728134633902e-02  5.6012348348419602e-02  2.4698079836870470e-02  -6.5828844754110723e-03  -3.7931732942632183e-02  -6.9587778099891348e-02  -1.0214416614915897e-01  -1.3473512558117673e-01  -1.6844071450965176e-01  -2.0520187223661443e-01  -2.4016250379417547e-01  -2.7753335643272881e-01  -3.2549793377156594e-01  -3.5970309112360893e-01  -3.9832396623814531e-01  -4.8554291723339738e-01  -4.5599141728086973e-01  -6.8243469954988156e-01  -2.4906413471671041e-01  -3.9047353777347395e-02  2.1624391854662484e-01  4.2551659841776179e-01  4.6499096804738255e-01  4.3131931310278998e-01  3.8575631544806099e-01  3.5119911513902813e-01  3.2181004257100343e-01  2.8573703934761724e-01  2.4954086047926061e-01  2.1703500312616061e-01  1.8434053559841573e-01  1.5129397772144051e-01  1.1930228049518105e-01  8.8147831366512608e-02  5.7352340639992276e-02  2.6800209673546852e-02  -3.6274117826964303e-03  -3.4078124762054927e-02  -6.4849718073864887e-02  -9.6128126173285824e-02  -1.2756929623576516e-01  -1.6084533375262422e-01  -1.9656486233338030e-01  -2.2951850939717880e-01  -2.6754262199806317e-01  -3.1543302127165734e-01  -3.4577902076793049e-01  -3.8796928552139659e-01  -4.7333754561017094e-01  -4.4650620196001434e-01  -6.7054419086922379e-01  -2.7313880464627616e-01  -3.7303525407555160e-02  1.3378545397701866e-01  3.7045477796149928e-01  4.5263928658741731e-01  4.3211341926069258e-01  3.8783654536215417e-01  3.4927755669347377e-01  3.1861328664249278e-01  2.8606966441607412e-01  2.4941101503491955e-01  2.1492092743138666e-01  1.8293336094603507e-01  1.5093517687328717e-01  1.1915746815380299e-01  8.8325536863077744e-02  5.8280479600481556e-02  2.8711097480343215e-02  -6.3433538816416908e-04  -2.9953647703060138e-02  -5.9372013758298849e-02  -8.9147227469814849e-02  -1.1980163192418397e-01  -1.5234350503503846e-01  -1.8544224496487624e-01  -2.1685772552996113e-01  -2.5633454763287178e-01  -3.0222797268336460e-01  -3.2803037613769020e-01  -3.7414604049006012e-01  -4.6003797254188716e-01  -4.2852559591236455e-01  -6.5684429519435195e-01  -2.9022831642936903e-01  -2.7561905927024986e-02  5.8221675773980339e-02  2.9077630897565054e-01  4.2412110310939627e-01  4.3185046852417186e-01  3.9096424442404770e-01  3.4926917250989592e-01  3.1489879404528520e-01  2.8355222982620926e-01  2.4929600764921361e-01  2.1354035831213949e-01  1.8017265293078663e-01  1.4887024720743627e-01  1.1820790339693979e-01  8.8144278146626773e-02  5.8926765470600460e-02  3.0399810941930512e-02  2.3531077208274586e-03  -2.5484737001817123e-02  -5.3465941109885687e-02  -8.1967921350768636e-02  -1.1160369969923761e-01  -1.4166847828656859e-01  -1.7147424371006112e-01  -2.0355156116651818e-01  -2.4385873272590500e-01  -2.8426870804248694e-01  -3.0634558966021391e-01  -3.5785177617361763e-01  -4.4438505392581945e-01  -4.0166863826696964e-01  -6.3751070438054225e-01  -3.0935678100293457e-01  -1.2423445112765540e-02  3.3886923641089977e-03  1.9233885941220186e-01  3.6851529335076405e-01  4.2262170609791205e-01  3.9505562149641632e-01  3.5120038646684987e-01  3.1283539116067755e-01  2.7917150764998799e-01  2.4638999766805281e-01  2.1203898118247144e-01  1.7773712734587493e-01  1.4562781250653747e-01  1.1556505813182001e-01  8.6732436505679564e-02  5.8793901601616114e-02  3.1661860536733137e-02  5.0821157262601465e-03  -2.1272887273793537e-02  -4.7606882891143329e-02  -7.4311907178025161e-02  -1.0128537829451001e