<?xml version="1.0"?>
<VTKFile type="UnstructuredGrid"  version="0.1"  >
<UnstructuredGrid>
<Piece  NumberOfPoints="16641" NumberOfCells="16384">
<Points>
<DataArray  type="Float64"  NumberOfComponents="3"  format="ascii">0 0 0  0.0078125 0 0  0.015625 0 0  0.0234375 0 0  0.03125 0 0  0.0390625 0 0  0.046875 0 0  0.0546875 0 0  0.0625 0 0  0.0703125 0 0  0.078125 0 0  0.0859375 0 0  0.09375 0 0  0.1015625 0 0  0.109375 0 0  0.1171875 0 0  0.125 0 0  0.1328125 0 0  0.140625 0 0  0.1484375 0 0  0.15625 0 0  0.1640625 0 0  0.171875 0 0  0.1796875 0 0  0.1875 0 0  0.1953125 0 0  0.203125 0 0  0.2109375 0 0  0.21875 0 0  0.2265625 0 0  0.234375 0 0  0.2421875 0 0  0.25 0 0  0.2578125 0 0  0.265625 0 0  0.2734375 0 0  0.28125 0 0  0.2890625 0 0  0.296875 0 0  0.3046875 0 0  0.3125 0 0  0.3203125 0 0  0.328125 0 0  0.3359375 0 0  0.34375 0 0  0.3515625 0 0  0.359375 0 0  0.3671875 0 0  0.375 0 0  0.3828125 0 0  0.390625 0 0  0.3984375 0 0  0.40625 0 0  0.4140625 0 0  0.421875 0 0  0.4296875 0 0  0.4375 0 0  0.4453125 0 0  0.453125 0 0  0.4609375 0 0  0.46875 0 0  0.4765625 0 0  0.484375 0 0  0.4921875 0 0  0.5 0 0  0.5078125 0 0  0.515625 0 0  0.5234375 0 0  0.53125 0 0  0.5390625 0 0  0.546875 0 0  0.5546875 0 0  0.5625 0 0  0.5703125 0 0  0.578125 0 0  0.5859375 0 0  0.59375 0 0  0.6015625 0 0  0.609375 0 0  0.6171875 0 0  0.625 0 0  0.6328125 0 0  0.640625 0 0  0.6484375 0 0  0.65625 0 0  0.6640625 0 0  0.671875 0 0  0.6796875 0 0  0.6875 0 0  0.6953125 0 0  0.703125 0 0  0.7109375 0 0  0.71875 0 0  0.7265625 0 0  0.734375 0 0  0.7421875 0 0  0.75 0 0  0.7578125 0 0  0.765625 0 0  0.7734375 0 0  0.78125 0 0  0.7890625 0 0  0.796875 0 0  0.8046875 0 0  0.8125 0 0  0.8203125 0 0  0.828125 0 0  0.8359375 0 0  0.84375 0 0  0.8515625 0 0  0.859375 0 0  0.8671875 0 0  0.875 0 0  0.8828125 0 0  0.890625 0 0  0.8984375 0 0  0.90625 0 0  0.9140625 0 0  0.921875 0 0  0.9296875 0 0  0.9375 0 0  0.9453125 0 0  0.953125 0 0  0.9609375 0 0  0.96875 0 0  0.9765625 0 0  0.984375 0 0  0.9921875 0 0  1 0 0  0 0.0078125 0  0.0078125 0.0078125 0  0.015625 0.0078125 0  0.0234375 0.0078125 0  0.03125 0.0078125 0  0.0390625 0.0078125 0  0.046875 0.0078125 0  0.0546875 0.0078125 0  0.0625 0.0078125 0  0.0703125 0.0078125 0  0.078125 0.0078125 0  0.0859375 0.0078125 0  0.09375 0.0078125 0  0.1015625 0.0078125 0  0.109375 0.0078125 0  0.1171875 0.0078125 0  0.125 0.0078125 0  0.1328125 0.0078125 0  0.140625 0.0078125 0  0.1484375 0.0078125 0  0.15625 0.0078125 0  0.1640625 0.0078125 0  0.171875 0.0078125 0  0.1796875 0.0078125 0  0.1875 0.0078125 0  0.1953125 0.0078125 0  0.203125 0.0078125 0  0.2109375 0.0078125 0  0.21875 0.0078125 0  0.2265625 0.0078125 0  0.234375 0.0078125 0  0.2421875 0.0078125 0  0.25 0.0078125 0  0.2578125 0.0078125 0  0.265625 0.0078125 0  0.2734375 0.0078125 0  0.28125 0.0078125 0  0.2890625 0.0078125 0  0.296875 0.0078125 0  0.3046875 0.0078125 0  0.3125 0.0078125 0  0.3203125 0.0078125 0  0.328125 0.0078125 0  0.3359375 0.0078125 0  0.34375 0.0078125 0  0.3515625 0.0078125 0  0.359375 0.0078125 0  0.3671875 0.0078125 0  0.375 0.0078125 0  0.3828125 0.0078125 0  0.390625 0.0078125 0  0.3984375 0.0078125 0  0.40625 0.0078125 0  0.4140625 0.0078125 0  0.421875 0.0078125 0  0.4296875 0.0078125 0  0.4375 0.0078125 0  0.4453125 0.0078125 0  0.453125 0.0078125 0  0.4609375 0.0078125 0  0.46875 0.0078125 0  0.4765625 0.0078125 0  0.484375 0.0078125 0  0.4921875 0.0078125 0  0.5 0.0078125 0  0.5078125 0.0078125 0  0.515625 0.0078125 0  0.5234375 0.0078125 0  0.53125 0.0078125 0  0.5390625 0.0078125 0  0.546875 0.0078125 0  0.5546875 0.0078125 0  0.5625 0.0078125 0  0.5703125 0.0078125 0  0.578125 0.0078125 0  0.5859375 0.0078125 0  0.59375 0.0078125 0  0.6015625 0.0078125 0  0.609375 0.0078125 0  0.6171875 0.0078125 0  0.625 0.0078125 0  0.6328125 0.0078125 0  0.640625 0.0078125 0  0.6484375 0.0078125 0  0.65625 0.0078125 0  0.6640625 0.0078125 0  0.671875 0.0078125 0  0.6796875 0.0078125 0  0.6875 0.0078125 0  0.6953125 0.0078125 0  0.703125 0.0078125 0  0.7109375 0.0078125 0  0.71875 0.0078125 0  0.7265625 0.0078125 0  0.734375 0.0078125 0  0.7421875 0.0078125 0  0.75 0.0078125 0  0.7578125 0.0078125 0  0.765625 0.0078125 0  0.7734375 0.0078125 0  0.78125 0.0078125 0  0.7890625 0.0078125 0  0.796875 0.0078125 0  0.8046875 0.0078125 0  0.8125 0.0078125 0  0.8203125 0.0078125 0  0.828125 0.0078125 0  0.8359375 0.0078125 0  0.84375 0.0078125 0  0.8515625 0.0078125 0  0.859375 0.0078125 0  0.8671875 0.0078125 0  0.875 0.0078125 0  0.8828125 0.0078125 0  0.890625 0.0078125 0  0.8984375 0.0078125 0  0.90625 0.0078125 0  0.9140625 0.0078125 0  0.921875 0.0078125 0  0.9296875 0.0078125 0  0.9375 0.0078125 0  0.9453125 0.0078125 0  0.953125 0.0078125 0  0.9609375 0.0078125 0  0.96875 0.0078125 0  0.9765625 0.0078125 0  0.984375 0.0078125 0  0.9921875 0.0078125 0  1 0.0078125 0  0 0.015625 0  0.0078125 0.015625 0  0.015625 0.015625 0  0.0234375 0.015625 0  0.03125 0.015625 0  0.0390625 0.015625 0  0.046875 0.015625 0  0.0546875 0.015625 0  0.0625 0.015625 0  0.0703125 0.015625 0  0.078125 0.015625 0  0.0859375 0.015625 0  0.09375 0.015625 0  0.1015625 0.015625 0  0.109375 0.015625 0  0.1171875 0.015625 0  0.125 0.015625 0  0.1328125 0.015625 0  0.140625 0.015625 0  0.1484375 0.015625 0  0.15625 0.015625 0  0.1640625 0.015625 0  0.171875 0.015625 0  0.1796875 0.015625 0  0.1875 0.015625 0  0.1953125 0.015625 0  0.203125 0.015625 0  0.2109375 0.015625 0  0.21875 0.015625 0  0.2265625 0.015625 0  0.234375 0.015625 0  0.2421875 0.015625 0  0.25 0.015625 0  0.2578125 0.015625 0  0.265625 0.015625 0  0.2734375 0.015625 0  0.28125 0.015625 0  0.2890625 0.015625 0  0.296875 0.015625 0  0.3046875 0.015625 0  0.3125 0.015625 0  0.3203125 0.015625 0  0.328125 0.015625 0  0.3359375 0.015625 0  0.34375 0.015625 0  0.3515625 0.015625 0  0.359375 0.015625 0  0.3671875 0.015625 0  0.375 0.015625 0  0.3828125 0.015625 0  0.390625 0.015625 0  0.3984375 0.015625 0  0.40625 0.015625 0  0.4140625 0.015625 0  0.421875 0.015625 0  0.4296875 0.015625 0  0.4375 0.015625 0  0.4453125 0.015625 0  0.453125 0.015625 0  0.4609375 0.015625 0  0.46875 0.015625 0  0.4765625 0.015625 0  0.484375 0.015625 0  0.4921875 0.015625 0  0.5 0.015625 0  0.5078125 0.015625 0  0.515625 0.015625 0  0.5234375 0.015625 0  0.53125 0.015625 0  0.5390625 0.015625 0  0.546875 0.015625 0  0.5546875 0.015625 0  0.5625 0.015625 0  0.5703125 0.015625 0  0.578125 0.015625 0  0.5859375 0.015625 0  0.59375 0.015625 0  0.6015625 0.015625 0  0.609375 0.015625 0  0.6171875 0.015625 0  0.625 0.015625 0  0.6328125 0.015625 0  0.640625 0.015625 0  0.6484375 0.015625 0  0.65625 0.015625 0  0.6640625 0.015625 0  0.671875 0.015625 0  0.6796875 0.015625 0  0.6875 0.015625 0  0.6953125 0.015625 0  0.703125 0.015625 0  0.7109375 0.015625 0  0.71875 0.015625 0  0.7265625 0.015625 0  0.734375 0.015625 0  0.7421875 0.015625 0  0.75 0.015625 0  0.7578125 0.015625 0  0.765625 0.015625 0  0.7734375 0.015625 0  0.78125 0.015625 0  0.7890625 0.015625 0  0.796875 0.015625 0  0.8046875 0.015625 0  0.8125 0.015625 0  0.8203125 0.015625 0  0.828125 0.015625 0  0.8359375 0.015625 0  0.84375 0.015625 0  0.8515625 0.015625 0  0.859375 0.015625 0  0.8671875 0.015625 0  0.875 0.015625 0  0.8828125 0.015625 0  0.890625 0.015625 0  0.8984375 0.015625 0  0.90625 0.015625 0  0.9140625 0.015625 0  0.921875 0.015625 0  0.9296875 0.015625 0  0.9375 0.015625 0  0.9453125 0.015625 0  0.953125 0.015625 0  0.9609375 0.015625 0  0.96875 0.015625 0  0.9765625 0.015625 0  0.984375 0.015625 0  0.9921875 0.015625 0  1 0.015625 0  0 0.0234375 0  0.0078125 0.0234375 0  0.015625 0.0234375 0  0.0234375 0.0234375 0  0.03125 0.0234375 0  0.0390625 0.0234375 0  0.046875 0.0234375 0  0.0546875 0.0234375 0  0.0625 0.0234375 0  0.0703125 0.0234375 0  0.078125 0.0234375 0  0.0859375 0.0234375 0  0.09375 0.0234375 0  0.1015625 0.0234375 0  0.109375 0.0234375 0  0.1171875 0.0234375 0  0.125 0.0234375 0  0.1328125 0.0234375 0  0.140625 0.0234375 0  0.1484375 0.0234375 0  0.15625 0.0234375 0  0.1640625 0.0234375 0  0.171875 0.0234375 0  0.1796875 0.0234375 0  0.1875 0.0234375 0  0.1953125 0.0234375 0  0.203125 0.0234375 0  0.2109375 0.0234375 0  0.21875 0.0234375 0  0.2265625 0.0234375 0  0.234375 0.0234375 0  0.2421875 0.0234375 0  0.25 0.0234375 0  0.2578125 0.0234375 0  0.265625 0.0234375 0  0.2734375 0.0234375 0  0.28125 0.0234375 0  0.2890625 0.0234375 0  0.296875 0.0234375 0  0.3046875 0.0234375 0  0.3125 0.0234375 0  0.3203125 0.0234375 0  0.328125 0.0234375 0  0.3359375 0.0234375 0  0.34375 0.0234375 0  0.3515625 0.0234375 0  0.359375 0.0234375 0  0.3671875 0.0234375 0  0.375 0.0234375 0  0.3828125 0.0234375 0  0.390625 0.0234375 0  0.3984375 0.0234375 0  0.40625 0.0234375 0  0.4140625 0.0234375 0  0.421875 0.0234375 0  0.4296875 0.0234375 0  0.4375 0.0234375 0  0.4453125 0.0234375 0  0.453125 0.0234375 0  0.4609375 0.0234375 0  0.46875 0.0234375 0  0.4765625 0.0234375 0  0.484375 0.0234375 0  0.4921875 0.0234375 0  0.5 0.0234375 0  0.5078125 0.0234375 0  0.515625 0.0234375 0  0.5234375 0.0234375 0  0.53125 0.0234375 0  0.5390625 0.0234375 0  0.546875 0.0234375 0  0.5546875 0.0234375 0  0.5625 0.0234375 0  0.5703125 0.0234375 0  0.578125 0.0234375 0  0.5859375 0.0234375 0  0.59375 0.0234375 0  0.6015625 0.0234375 0  0.609375 0.0234375 0  0.6171875 0.0234375 0  0.625 0.0234375 0  0.6328125 0.0234375 0  0.640625 0.0234375 0  0.6484375 0.0234375 0  0.65625 0.0234375 0  0.6640625 0.0234375 0  0.671875 0.0234375 0  0.6796875 0.0234375 0  0.6875 0.0234375 0  0.6953125 0.0234375 0  0.703125 0.0234375 0  0.7109375 0.0234375 0  0.71875 0.0234375 0  0.7265625 0.0234375 0  0.734375 0.0234375 0  0.7421875 0.0234375 0  0.75 0.0234375 0  0.7578125 0.0234375 0  0.765625 0.0234375 0  0.7734375 0.0234375 0  0.78125 0.0234375 0  0.7890625 0.0234375 0  0.796875 0.0234375 0  0.8046875 0.0234375 0  0.8125 0.0234375 0  0.8203125 0.0234375 0  0.828125 0.0234375 0  0.8359375 0.0234375 0  0.84375 0.0234375 0  0.8515625 0.0234375 0  0.859375 0.0234375 0  0.8671
[...]
<PointData  Scalars="u_sol"> 
<DataArray  type="Float64"  Name="u_sol"  format="ascii">1.1665266095523161e-06  -1.9634625689591616e-06  -1.1864989135982380e-05  -2.0428905216967111e-05  -2.5297501508421432e-05  -2.5982821981458508e-05  -2.2329119910835570e-05  -1.4592446748355495e-05  -3.4212770963540171e-06  1.0171825606438893e-05  2.4957872363603804e-05  3.9692162119271552e-05  5.3317384891791993e-05  6.5112958359267496e-05  7.4762289049074999e-05  8.2338099205032112e-05  8.8228764182437134e-05  9.3037812465875607e-05  9.7485490883094772e-05  1.0233045349133238e-04  1.0831721166885970e-04  1.1614544494934436e-04  1.2645282955504999e-04  1.3980396267680281e-04  1.5668313996639185e-04  1.7749591889799302e-04  2.0259022856669595e-04  2.3230821657881773e-04  2.6707223355726693e-04  3.0749323999632798e-04  3.5447342463426244e-04  4.0926750746063232e-04  4.7347876451908318e-04  5.4899314172481603e-04  6.3788082098445269e-04  7.4230625852344297e-04  8.6447194849177873e-04  1.0065549172768179e-03  1.1705412673832024e-03  1.3579635418409669e-03  1.5696358217519638e-03  1.8052459671894186e-03  2.0625852912505536e-03  2.3368413118454380e-03  2.6206181381560729e-03  2.9042499373626274e-03  3.1754248465573755e-03  3.4184955317545919e-03  3.6148804738040255e-03  3.7449352441574165e-03  3.7902746911040817e-03  3.7354649865739939e-03  3.5688001374620075e-03  3.2824830397896201e-03  2.8726329144873721e-03  2.3393473509187748e-03  1.6868334508617481e-03  9.2352327560942698e-04  6.2098203930861931e-05  -8.8059711506366595e-04  -1.8837212578058234e-03  -2.9226355265632247e-03  -3.9691027156350733e-03  -4.9914864914815810e-03  -5.9549963701877101e-03  -6.8220656119449543e-03  -7.5529831313888756e-03  -8.1069177747435679e-03  -8.4434674576642377e-03  -8.5248284876393993e-03  -8.3186052937981158e-03  -7.8011663915213761e-03  -6.9613046874400604e-03  -5.8037974025338000e-03  -4.3523148992599715e-03  -2.6510401214516689e-03  -7.6437754382889392e-04  1.2257107425875274e-03  3.2248920339479166e-03  5.1338849592096605e-03  6.8573385269384080e-03  8.3129642790391502e-03  9.4394857145808433e-03  1.0202036810253216e-02  1.0594044080592271e-02  1.0635298390240992e-02  1.0366700239001303e-02  9.8428311473537367e-03  9.1238740279005488e-03  8.2683866513144164e-03  7.3280670114057563e-03  6.3450857736474789e-03  5.3519754701362989e-03  4.3735835311883567e-03  3.4302496294100690e-03  2.5411327030036243e-03  1.7265016407648347e-03  1.0079489914018044e-03  4.0608427268846363e-04  -6.3699637930096593e-05  -3.9579022146351157e-04  -5.9727498735650598e-04  -6.8759386890020039e-04  -6.9442159492890808e-04  -6.4727594366164893e-04  -5.7182711429679307e-04  -4.8697649048651216e-04  -4.0461577331642119e-04  -3.3093569238149684e-04  -2.6825176717228772e-04  -2.1665881604324990e-04  -1.7520284153971891e-04  -1.4255911698387712e-04  -1.1734374843099371e-04  -9.8214341915807860e-05  -8.3884172600408709e-05  -7.3121897643798464e-05  -6.4764390014092682e-05  -5.7745965404323768e-05  -5.1140295555474885e-05  -4.4210773482499599e-05  -3.6468506345524710e-05  -2.7725141171502459e-05  -1.8163198636768660e-05  -8.3343112999082162e-06  5.5364589012062438e-07  6.9762340337527780e-06  6.3386924950739489e-06  -5.1157468956711753e-08  4.3626504920933406e-06  -2.6942399570179776e-05  -7.1252354868807965e-05  -7.4936428078864974e-05  -5.7194706235407245e-06  1.5239897333955841e-04  4.0244631233827513e-04  7.3718307642042249e-04  1.1410674189263391e-03  1.5927449908051184e-03  2.0680207296195911e-03  2.5430251514105993e-03  2.9970780001501609e-03  3.4148177004338261e-03  3.7873427789961774e-03  4.1123384157323037e-03  4.3933539397872420e-03  4.6385106216296343e-03  4.8589415342483204e-03  5.0672147753121613e-03  5.2759023610919661e-03  5.4963666142899435e-03  5.7377726537088591e-03  6.0063139761680441e-03  6.3046552451057978e-03  6.6316322600649420e-03  6.9822705753016133e-03  7.3481560496501579e-03  7.7180934240664517e-03  8.0788421709879227e-03  8.4155905027517748e-03  8.7118112080392506e-03  8.9483059938655300e-03  9.1015686339717527e-03  9.1419016282820106e-03  9.0317907670001626e-03  8.7249171039900774e-03  8.1659209553204149e-03  7.2905589600224851e-03  6.0260492668202381e-03  4.2925745841935524e-03  2.0065006304070317e-03  -9.1623484722589722e-04  -4.5567258096154955e-03  -8.9867437607566800e-03  -1.4259367646101487e-02  -2.0401363268656856e-02  -2.7409923440964844e-02  -3.5251491124453783e-02  -4.3860361191617112e-02  -5.3137622093219268e-02  -6.2952234197532556e-02  -7.3145245661652272e-02  -8.3536791219002107e-02  -9.3934605829528756e-02  -1.0414256652739523e-01  -1.1396806883501978e-01  -1.2322756139979378e-01  -1.3175007329652313e-01  -1.3937894879728571e-01  -1.4597222178884947e-01  -1.5140214001358823e-01  -1.5555433342989869e-01  -1.5832705374998804e-01  -1.5963082599901590e-01  -1.5938876436105601e-01  -1.5753772024455012e-01  -1.5403034930500409e-01  -1.4883810090103489e-01  -1.4195504255905855e-01  -1.3340232917746700e-01  -1.2323301105133595e-01  -1.1153675040849359e-01  -9.8443894964072298e-02  -8.4128256868225129e-02  -6.8807894406906198e-02  -5.2743222586834254e-02  -3.6231917022282380e-02  -1.9600341295128276e-02  -3.1916146016114505e-03  1.2649093934286197e-02  2.7590976868072103e-02  4.1334237719042100e-02  5.3625280564382601e-02  6.4268749956823815e-02  7.3134995926972299e-02  8.0162032941050912e-02  8.5351718776425653e-02  8.8760611928854441e-02  9.0486685266238528e-02  9.0653704088261872e-02  8.9395563349187690e-02  8.6843179259903008e-02  8.3116584179155809e-02  7.8324553373013001e-02  7.2573155618913684e-02  6.5982728926751305e-02  5.8709711378913780e-02  5.0965907792265529e-02  4.3024879712322141e-02  3.5206353515698910e-02  2.7837391472116717e-02  2.1201311595493828e-02  1.5493317387313894e-02  1.0798553124635223e-02  7.0973991584514281e-03  4.2919550746159871e-03  2.2411321383029835e-03  7.9212825494762672e-04  -1.9812505954845024e-04  -8.5193253677745507e-04  -1.2674314579363296e-03  -1.5194765032594643e-03  -1.6623585606681420e-03  -1.7330685219321296e-03  -1.7546249038512603e-03  -1.7393369695493711e-03  -1.6919497050066213e-03  -1.6126035737875869e-03  -1.4995346855895394e-03  -1.3514511900057206e-03  -1.1695304581003487e-03  -9.5898065517063011e-04  -7.3010811902883695e-04  -4.9881849691688757e-04  -2.8653371125658212e-04  -1.1867170109548981e-04  -2.0846317759907501e-05  4.9560384326308169e-06  3.7247185364383624e-06  -2.4368238863308098e-05  -4.3926566242264407e-05  1.5018372983735371e-05  1.9436268967024033e-04  5.1640398779894531e-04  9.8370932987872756e-04  1.5826550628396802e-03  2.2868768529978102e-03  3.0616293310464144e-03  3.8685848710256444e-03  4.6706039468968515e-03  5.4358422386958883e-03  6.1406964647321809e-03  6.7713249530482154e-03  7.3237488610022848e-03  7.8027615194558100e-03  8.2200052728672434e-03  8.5916068685555989e-03  8.9357111490481218e-03  9.2701524927568182e-03  9.6103939277921973e-03  9.9677800873358546e-03  1.0348113142381701e-02  1.0750570607683411e-02  1.1167016906453478e-02  1.1581773018806692e-02  1.1971852183434238e-02  1.2307521492653409e-02  1.2552839635837386e-02  1.2665659498293132e-02  1.2596628484861946e-02  1.2287031028858905e-02  1.1665844363560031e-02  1.0646945490278207e-02  9.1274352481168740e-03  6.9875031472164586e-03  4.0923868725808972e-03  2.9700050613935651e-04  -4.5476688336680447e-03  -1.0586455127852874e-02  -1.7947473948784057e-02  -2.6725549259307334e-02  -3.6967315065289372e-02  -4.8661395881860803e-02  -6.1731645425353629e-02  -7.6031550145153573e-02  -9.1342824020073460e-02  -1.0738377937876595e-01  -1.2382889708239986e-01  -1.4033483014028841e-01  -1.5656594985240785e-01  -1.7221439960304477e-01  -1.8701264286296018e-01  -2.0073885357481705e-01  -2.1321671797128533e-01  -2.2431153522942729e-01  -2.3392431000076608e-01  -2.4198513281320577e-01  -2.4844672639699170e-01  -2.5327868468919146e-01  -2.5646267194059658e-01  -2.5798867854227786e-01  -2.5785233130375212e-01  -2.5605320877371457e-01  -2.5259409985408304e-01  -2.4748115088633568e-01  -2.4072486094011897e-01  -2.3234189715444101e-01  -2.2235770171654443e-01  -2.1080984059779564e-01  -1.9775199243365144e-01  -1.8325838807616535e-01  -1.6742838693035678e-01  -1.5039072705581705e-01  -1.3230683777115809e-01  -1.1337249972562920e-01  -9.3817132623764579e-02  -7.3900136285124735e-02  -5.3904033160599905e-02  -3.4124636408229110e-02  -1.4859011568490678e-02  3.6075251910285574e-03  2.1013868648057092e-02  3.7133588324892802e-02  5.1782278188360946e-02  6.4821192169518496e-02  7.6157079629983165e-02  8.5738504137615468e-02  9.3549114533781549e-02  9.9598419801015595e-02  1.0391075396905461e-01  1.0651346228432075e-01  1.0742599407710431e-01  1.0665253396054994e-01  1.0418183895324842e-01  9.9998573819124720e-02  9.4109719248981913e-02  8.6586228215803071e-02  7.7612851652893000e-02  6.7528611186398996e-02  5.6831947100642197e-02  4.6128779951424989e-02  3.6027404383700085e-02  2.7019933546148300e-02  1.9402567159754469e-02  1.3261414543185395e-02  8.5134273297142477e-03  4.9724090669187211e-03  2.4118044057441354e-03  6.0910323850220372e-04  -6.2999262125846428e-04  -1.4624650061356532e-03  -2.0076920712973501e-03  -2.3514260207477978e-03  -2.5514721031788873e-03  -2.6438273894143433e-03  -2.6486937702913573e-03  -2.5760594557905788e-03  -2.4306706255527687e-03  -2.2162857283247886e-03  -1.9391422405682346e-03  -1.6105745743501987e-03  -1.2487015175103239e-03  -8.7907073851789573e-04  -5.3388898159210853e-04  -2.4943956480186707e-04  -5.8760063010313086e-05  1.1287696432359834e-05  4.6891383383505571e-07  -6.3733958193362272e-06  3.2311598436509070e-05  1.8657005673481335e-04  4.9963843264709746e-04  9.9186871614410943e-04  1.6609504010182297e-03  2.4851509007487288e-03  3.4279397407335913e-03  4.4438297469191973e-03  5.4846016453936651e-03  6.5051175907531655e-03  7.4679761334801248e-03  8.3465271601561482e-03  9.1260938345630125e-03  9.8035513214848654e-03  1.0385616124395425e-02  1.0886286405143792e-02  1.1323858656429884e-02  1.1717863543317431e-02  1.2086150969343464e-02  1.2442245664833587e-02  1.2793017497831112e-02  1.3136681863347873e-02  1.3461162856993569e-02  1.3742886717460014e-02  1.3946072159282124e-02  1.4022485427449709e-02  1.3911409836864931e-02  1.3539328163039040e-02  1.2818693189490237e-02  1.1645424522941502e-02  9.8955592555082031e-03  7.4222373632704137e-03  4.0546936977447767e-03  -3.9869123005924179e-04  -6.1427204537231380e-03  -1.3384041679560031e-02  -2.2314232300214318e-02  -3.3085816699010007e-02  -4.5787306774911489e-02  -6.0423016910542970e-02  -7.6895239703375085e-02  -9.4989320271613664e-02  -1.1437281352554647e-01  -1.3461822986891239e-01  -1.5524559577836719e-01  -1.7577205318528280e-01  -1.9575575285169441e-01  -2.1482600649815939e-01  -2.3269747481527955e-01  -2.4917057544221388e-01  -2.6412234244205279e-01  -2.7749214795096006e-01  -2.8926586050991021e-01  -2.9946085499963765e-01  -3.0811320329144276e-01  -3.1526754246685479e-01  -3.2096957271392290e-01  -3.2526084497901681e-01  -3.2817539056827311e-01  -3.2973775579895037e-01  -3.2996207849726389e-01  -3.2885194229037618e-01  -3.2640084599430830e-01  -3.2259321706914201e-01  -3.1740597481105187e-01  -3.1081070834944546e-01  -3.0277657399677799e-01  -2.9327403205167968e-01  -2.8227952719215066e-01  -2.6978115877261094e-01  -2.5578527606982210e-01  -2.4032375970666969e-01  -2.2346151354248658e-01  -2.0530340977018008e-01  -1.8599964930968330e-01  -1.6574829914439307e-01  -1.4479375402390809e-01  -1.2342015127896583e-01  -1.0193941084862428e-01  -8.0674544451539848e-02  -5.9940002580048925e-02  -4.0021792348050436e-02  -2.1160537807524721e-02  -3.5403024861298828e-03  1.2715149300758880e-02  2.7538579310857774e-02  4.0909418514071927e-02  5.2840114003821707e-02  6.3360939713055967e-02  7.2504787911378862e-02  8.0292498865847509e-02  8.6718709559995680e-02  9.1738498458291864e-02  9.5256516897477134e-02  9.7122728906055611e-02  9.7141700267830880e-02  9.5104094644916565e-02  9.0846992694800996e-02  8.4340462514318620e-02  7.5779816950360387e-02  6.5641657589580765e-02  5.4654724921728751e-02  4.3666610880455044e-02  3.3451779022119557e-02  2.4552225072239805e-02  1.7218058142692842e-02  1.1446445766010222e-02  7.0705787793400605e-03  3.8495416398010972e-03  1.5332750844845790e-03  -1.0111921078496349e-04  -1.2346303168674173e-03  -2.0044492153827634e-03  -2.5085401936471717e-03  -2.8128949703767041e-03  -2.9594724050782334e-03  -2.9738154891092898e-03  -2.8718532462521621e-03  -2.6656644856153417e-03  -2.3681121252015738e-03  -1.9963086570100857e-03  -1.5738488283927935e-03  -1.1317354388550949e-03  -7.0768332472205683e-04  -3.4417734544625996e-04  -8.5151677964458308e-05  1.6244641106328350e-05  -3.8988577309504657e-06  1.6345525053325460e-05  1.2908049725358025e-04  3.9827112176831490e-04  8.6303780735541168e-04  1.5370723987717981e-03  2.4085935426163747e-03  3.4442094414295823e-03  4.5948449598766563e-03  5.8032954785522681e-03  7.0120347994296070e-03  8.1700644454543864e-03  9.2378450750442639e-03  1.0189856311939921e-02  1.1014840878016486e-02  1.1714167192336315e-02  1.2298917729736146e-02  1.2786299552051694e-02  1.3195847767594193e-02  1.3545726909032087e-02  1.3849283004508040e-02  1.4111889974201429e-02  1.4328081488035020e-02  1.4478965764812043e-02  1.4529971732784175e-02  1.4429026155839814e-02  1.4105232623447848e-02  1.3467951002462918e-02  1.2405863172721906e-02  1.0785371062488011e-02  8.4479571526452010e-03  5.2069810520996027e-03  8.4584633296803555e-04  -4.8789856306489668e-03  -1.2227857415307261e-02  -2.1460034807131535e-02  -3.2806080726122677e-02  -4.6432598480963455e-02  -6.2407730444635046e-02  -8.0669781463445653e-02  -1.0099884310634455e-01  -1.2300540779784633e-01  -1.4615479019480296e-01  -1.6982818049493498e-01  -1.9340117602215895e-01  -2.1631537278577523e-01  -2.3812621744053775e-01  -2.5852220527451608e-01  -2.7731974862605629e-01  -2.9444238322809030e-01  -3.0989317359612301e-01  -3.2372703999038088e-01  -3.3602701108382554e-01  -3.4688608118038106e-01  -3.5639475873483362e-01  -3.6463350156148733e-01  -3.7166887862552817e-01  -3.7755228593267770e-01  -3.8232021781972791e-01  -3.8599533701115635e-01  -3.8858782844833456e-01  -3.9009672511570431e-01  -3.9051104855874785e-01  -3.8981071572674514e-01  -3.8796723771362601e-01  -3.8494428803095015e-01  -3.8069825981603450e-01  -3.7517897235470932e-01  -3.6833073285528201e-01  -3.6009400995617269e-01  -3.5040802451731501e-01  -3.3921459596202258e-01  -3.2646357339990806e-01  -3.1212009501801108e-01  -2.9617371757983513e-01  -2.7864910831306172e-01  -2.5961748792333939e-01  -2.3920740244873587e-01  -2.1761280309384226e-01  -1.9509602424087766e-01  -1.7198331635633116e-01  -1.4865132920660007e-01  -1.2550442488014912e-01  -1.0294474686310315e-01  -8.1339093895184456e-02  -6.0988140156585963e-02  -4.2103727992612971e-02  -2.4798520769842798e-02  -9.0895515830378207e-03  5.0859361682532248e-03  1.7846317463127849e-02  2.9337780293965467e-02  3.9706624113615495e-02  4.9073462543103449e-02  5.7509341133950065e-02  6.5013199539369945e-02  7.1491408627828532e-02  7.6743441220174832e-02  8.0462514964732001e-02  8.2264480800182352e-02  8.1758526682406685e-02  7.8663601937740288e-02  7.2950118210363596e-02  6.4952318581546417e-02  5.5376958595158253e-02  4.5165732456111690e-02  3.5256678338468489e-02  2.6363675158375274e-02  1.8874213004947946e-02  1.2875961792826773e-02  8.2538455988361639e-03  4.7937027125701387e-03  2.2586004348081022e-03  4.3229164782600618e-04  -8.6230381183159937e-04  -1.7597217970151411e-03  -2.3563037302596784e-03  -2.7177807774366649e-03  -2.8876341364379643e-03  -2.8949863048164741e-03  -2.7614522242364182e-03  -2.5067311162700720e-03  -2.1528821678266077e-03  -1.7272592622750945e-03  -1.2641387897914050e-03  -8.0495794705260379e-04  -3.9835456496910878e-04  -9.9908718464526336e-05  1.9103208430069990e-05  -8.6662586508341776e-06  4.0368340692271626e-05  2.3588614955386518e-04  6.3610723510957787e-04  1.2726170220521162e-03  2.1481580103832019e-03  3.2364236417860574e-03  4.4871345984303247e-03  5.8341326643436692e-03  7.2054193298040029e-03  8.5331027772798749e-03  9.7614378517051001e-03  1.0851739990381666e-02  1.1783835756554778e-02  1.2554490114771444e-02  1.3173708333465931e-02  1.3659898766738506e-02  1.4034702492258662e-02  1.4318000780273586e-02  1.4523330405947860e-02  1.4653738612381883e-02  1.4698010519444655e-02  1.4627191693641572e-02  1.4391389565998327e-02  1.3916933824799957e-02  1.3104038669704584e-02  1.1825031944536608e-02  9.9229262768460013e-03  7.2098537415419004e-03  3.4650427187359022e-03  -1.5667904823583058e-03  -8.1732237152703779e-03  -1.6663659511967258e-02  -2.7346851700696857e-02  -4.0493356998876032e-02  -5.6287353182731925e-02  -7.4778472543217317e-02  -9.5836902393679729e-02  -1.1911845701664718e-01  -1.4406514889147445e-01  -1.6996182495798942e-01  -1.9603718908892026e-01  -2.2157331646298034e-01  -2.4598898760255866e-01  -2.6888001709851067e-01  -2.9001859366007626e-01  -3.0932454319830427e-01  -3.2682386039229627e-01  -3.4260697519158279e-01  -3.5679431618367052e-01  -3.6951206908501905e-01  -3.8087774647986233e-01  -3.9099347043659605e-01  -3.9994439605440263e-01  -4.0779998523421551e-01  -4.1461644284001903e-01  -4.2043925881980515e-01  -4.2530531077060990e-01  -4.2924432746856528e-01  -4.3227971179885538e-01  -4.3442881041693110e-01  -4.3570273943883286e-01  -4.3610586362489751e-01  -4.3563500362927221e-01  -4.3427842677266704e-01  -4.3201466951851641e-01  -4.2881125041300505e-01  -4.2462336408109613e-01  -4.1939270389631217e-01  -4.1304664456067486e-01  -4.0549812551993830e-01  -3.9664670323487933e-01  -3.8638136546898316e-01  -3.7458578746625154e-01  -3.6114670109151414e-01  -3.4596586853954742e-01  -3.2897572446574058e-01  -3.1015802099526474e-01  -2.8956379770531659e-01  -2.6733184282311179e-01  -2.4370180040731132e-01  -2.1901762609277051e-01  -1.9371763782112425e-01  -1.6830922754133126e-01  -1.4332930934899241e-01  -1.1929519177603026e-01  -9.6653731661740822e-02  -7.5738146642547702e-02  -5.6740867173238195e-02  -3.9707289907605754e-02  -2.4550331324839830e-02  -1.1081107583378916e-02  9.5138224019132719e-04  1.1818309433361054e-02  2.1771025561102112e-02  3.1004243427381072e-02  3.9621833014090294e-02  4.7605265750260813e-02  5.4788090283788227e-02  6.0845674327520187e-02  6.5316290497547599e-02  6.7672967925566388e-02  6.7456731051845464e-02  6.4452326020230988e-02  5.8842016795063984e-02  5.1244205926819504e-02  4.2580616362107138e-02  3.3820692443089391e-02  2.5737071760460344e-02  1.8784260767104009e-02  1.3114332787405949e-02  8.6691007899242934e-03  5.2819623660249849e-03  2.7540222663811845e-03  8.9832172117946282e-04  -4.4049999891979482e-04  -1.3816668625938205e-03  -2.0116369487368849e-03  -2.3908667032451971e-03  -2.5614401002837764e-03  -2.5542774931362955e-03  -2.3953483298298603e-03  -2.1106857120472629e-03  -1.7301572492589839e-03  -1.2900937842420209e-03  -8.3485153387357150e-04  -4.1853376711760816e-04  -1.0588609400818766e-04  2.0279464634905302e-05  -1.3809157392047701e-05  6.5765567225972536e-05  3.5332807828193836e-04  9.0337860810953173e-04  1.7375927591483161e-03  2.8428682042355288e-03  4.1718550635734637e-03  5.6504372599694083e-03  7.1893785380096348e-03  8.6981140333784526e-03  1.0097522975959840e-02  1.1329099491012261e-02  1.2359135838240408e-02  1.3177985048338715e-02  1.3795538664254901e-02  1.4234490180522332e-02  1.4522817993780813e-02  1.4686470746777426e-02  1.4742740765464829e-02  1.4694438129092626e-02  1.4524778922391689e-02  1.4192847186794399e-02  1.3629532072828920e-02  1.2733943846113914e-02  1.1370440877729423e-02  9.3664507860225371e-03  6.5111550373982323e-03  2.5549046637277093e-03  -2.7906034380385360e-03  -9.8495878195896513e-03  -1.8972494417032391e-02  -3.0513218590902717e-02  -4.4786667887634843e-02  -6.2008556338077343e-02  -8.2230224979555733e-02  -1.0527801109813457e-01  -1.3071153267029550e-01  -1.5783455424283799e-01  -1.8578062336401110e-01