<?xml version="1.0"?>
<VTKFile type="UnstructuredGrid"  version="0.1"  >
<UnstructuredGrid>
<Piece  NumberOfPoints="16641" NumberOfCells="16384">
<Points>
<DataArray  type="Float64"  NumberOfComponents="3"  format="ascii">0 0 0  0.0078125 0 0  0.015625 0 0  0.0234375 0 0  0.03125 0 0  0.0390625 0 0  0.046875 0 0  0.0546875 0 0  0.0625 0 0  0.0703125 0 0  0.078125 0 0  0.0859375 0 0  0.09375 0 0  0.1015625 0 0  0.109375 0 0  0.1171875 0 0  0.125 0 0  0.1328125 0 0  0.140625 0 0  0.1484375 0 0  0.15625 0 0  0.1640625 0 0  0.171875 0 0  0.1796875 0 0  0.1875 0 0  0.1953125 0 0  0.203125 0 0  0.2109375 0 0  0.21875 0 0  0.2265625 0 0  0.234375 0 0  0.2421875 0 0  0.25 0 0  0.2578125 0 0  0.265625 0 0  0.2734375 0 0  0.28125 0 0  0.2890625 0 0  0.296875 0 0  0.3046875 0 0  0.3125 0 0  0.3203125 0 0  0.328125 0 0  0.3359375 0 0  0.34375 0 0  0.3515625 0 0  0.359375 0 0  0.3671875 0 0  0.375 0 0  0.3828125 0 0  0.390625 0 0  0.3984375 0 0  0.40625 0 0  0.4140625 0 0  0.421875 0 0  0.4296875 0 0  0.4375 0 0  0.4453125 0 0  0.453125 0 0  0.4609375 0 0  0.46875 0 0  0.4765625 0 0  0.484375 0 0  0.4921875 0 0  0.5 0 0  0.5078125 0 0  0.515625 0 0  0.5234375 0 0  0.53125 0 0  0.5390625 0 0  0.546875 0 0  0.5546875 0 0  0.5625 0 0  0.5703125 0 0  0.578125 0 0  0.5859375 0 0  0.59375 0 0  0.6015625 0 0  0.609375 0 0  0.6171875 0 0  0.625 0 0  0.6328125 0 0  0.640625 0 0  0.6484375 0 0  0.65625 0 0  0.6640625 0 0  0.671875 0 0  0.6796875 0 0  0.6875 0 0  0.6953125 0 0  0.703125 0 0  0.7109375 0 0  0.71875 0 0  0.7265625 0 0  0.734375 0 0  0.7421875 0 0  0.75 0 0  0.7578125 0 0  0.765625 0 0  0.7734375 0 0  0.78125 0 0  0.7890625 0 0  0.796875 0 0  0.8046875 0 0  0.8125 0 0  0.8203125 0 0  0.828125 0 0  0.8359375 0 0  0.84375 0 0  0.8515625 0 0  0.859375 0 0  0.8671875 0 0  0.875 0 0  0.8828125 0 0  0.890625 0 0  0.8984375 0 0  0.90625 0 0  0.9140625 0 0  0.921875 0 0  0.9296875 0 0  0.9375 0 0  0.9453125 0 0  0.953125 0 0  0.9609375 0 0  0.96875 0 0  0.9765625 0 0  0.984375 0 0  0.9921875 0 0  1 0 0  0 0.0078125 0  0.0078125 0.0078125 0  0.015625 0.0078125 0  0.0234375 0.0078125 0  0.03125 0.0078125 0  0.0390625 0.0078125 0  0.046875 0.0078125 0  0.0546875 0.0078125 0  0.0625 0.0078125 0  0.0703125 0.0078125 0  0.078125 0.0078125 0  0.0859375 0.0078125 0  0.09375 0.0078125 0  0.1015625 0.0078125 0  0.109375 0.0078125 0  0.1171875 0.0078125 0  0.125 0.0078125 0  0.1328125 0.0078125 0  0.140625 0.0078125 0  0.1484375 0.0078125 0  0.15625 0.0078125 0  0.1640625 0.0078125 0  0.171875 0.0078125 0  0.1796875 0.0078125 0  0.1875 0.0078125 0  0.1953125 0.0078125 0  0.203125 0.0078125 0  0.2109375 0.0078125 0  0.21875 0.0078125 0  0.2265625 0.0078125 0  0.234375 0.0078125 0  0.2421875 0.0078125 0  0.25 0.0078125 0  0.2578125 0.0078125 0  0.265625 0.0078125 0  0.2734375 0.0078125 0  0.28125 0.0078125 0  0.2890625 0.0078125 0  0.296875 0.0078125 0  0.3046875 0.0078125 0  0.3125 0.0078125 0  0.3203125 0.0078125 0  0.328125 0.0078125 0  0.3359375 0.0078125 0  0.34375 0.0078125 0  0.3515625 0.0078125 0  0.359375 0.0078125 0  0.3671875 0.0078125 0  0.375 0.0078125 0  0.3828125 0.0078125 0  0.390625 0.0078125 0  0.3984375 0.0078125 0  0.40625 0.0078125 0  0.4140625 0.0078125 0  0.421875 0.0078125 0  0.4296875 0.0078125 0  0.4375 0.0078125 0  0.4453125 0.0078125 0  0.453125 0.0078125 0  0.4609375 0.0078125 0  0.46875 0.0078125 0  0.4765625 0.0078125 0  0.484375 0.0078125 0  0.4921875 0.0078125 0  0.5 0.0078125 0  0.5078125 0.0078125 0  0.515625 0.0078125 0  0.5234375 0.0078125 0  0.53125 0.0078125 0  0.5390625 0.0078125 0  0.546875 0.0078125 0  0.5546875 0.0078125 0  0.5625 0.0078125 0  0.5703125 0.0078125 0  0.578125 0.0078125 0  0.5859375 0.0078125 0  0.59375 0.0078125 0  0.6015625 0.0078125 0  0.609375 0.0078125 0  0.6171875 0.0078125 0  0.625 0.0078125 0  0.6328125 0.0078125 0  0.640625 0.0078125 0  0.6484375 0.0078125 0  0.65625 0.0078125 0  0.6640625 0.0078125 0  0.671875 0.0078125 0  0.6796875 0.0078125 0  0.6875 0.0078125 0  0.6953125 0.0078125 0  0.703125 0.0078125 0  0.7109375 0.0078125 0  0.71875 0.0078125 0  0.7265625 0.0078125 0  0.734375 0.0078125 0  0.7421875 0.0078125 0  0.75 0.0078125 0  0.7578125 0.0078125 0  0.765625 0.0078125 0  0.7734375 0.0078125 0  0.78125 0.0078125 0  0.7890625 0.0078125 0  0.796875 0.0078125 0  0.8046875 0.0078125 0  0.8125 0.0078125 0  0.8203125 0.0078125 0  0.828125 0.0078125 0  0.8359375 0.0078125 0  0.84375 0.0078125 0  0.8515625 0.0078125 0  0.859375 0.0078125 0  0.8671875 0.0078125 0  0.875 0.0078125 0  0.8828125 0.0078125 0  0.890625 0.0078125 0  0.8984375 0.0078125 0  0.90625 0.0078125 0  0.9140625 0.0078125 0  0.921875 0.0078125 0  0.9296875 0.0078125 0  0.9375 0.0078125 0  0.9453125 0.0078125 0  0.953125 0.0078125 0  0.9609375 0.0078125 0  0.96875 0.0078125 0  0.9765625 0.0078125 0  0.984375 0.0078125 0  0.9921875 0.0078125 0  1 0.0078125 0  0 0.015625 0  0.0078125 0.015625 0  0.015625 0.015625 0  0.0234375 0.015625 0  0.03125 0.015625 0  0.0390625 0.015625 0  0.046875 0.015625 0  0.0546875 0.015625 0  0.0625 0.015625 0  0.0703125 0.015625 0  0.078125 0.015625 0  0.0859375 0.015625 0  0.09375 0.015625 0  0.1015625 0.015625 0  0.109375 0.015625 0  0.1171875 0.015625 0  0.125 0.015625 0  0.1328125 0.015625 0  0.140625 0.015625 0  0.1484375 0.015625 0  0.15625 0.015625 0  0.1640625 0.015625 0  0.171875 0.015625 0  0.1796875 0.015625 0  0.1875 0.015625 0  0.1953125 0.015625 0  0.203125 0.015625 0  0.2109375 0.015625 0  0.21875 0.015625 0  0.2265625 0.015625 0  0.234375 0.015625 0  0.2421875 0.015625 0  0.25 0.015625 0  0.2578125 0.015625 0  0.265625 0.015625 0  0.2734375 0.015625 0  0.28125 0.015625 0  0.2890625 0.015625 0  0.296875 0.015625 0  0.3046875 0.015625 0  0.3125 0.015625 0  0.3203125 0.015625 0  0.328125 0.015625 0  0.3359375 0.015625 0  0.34375 0.015625 0  0.3515625 0.015625 0  0.359375 0.015625 0  0.3671875 0.015625 0  0.375 0.015625 0  0.3828125 0.015625 0  0.390625 0.015625 0  0.3984375 0.015625 0  0.40625 0.015625 0  0.4140625 0.015625 0  0.421875 0.015625 0  0.4296875 0.015625 0  0.4375 0.015625 0  0.4453125 0.015625 0  0.453125 0.015625 0  0.4609375 0.015625 0  0.46875 0.015625 0  0.4765625 0.015625 0  0.484375 0.015625 0  0.4921875 0.015625 0  0.5 0.015625 0  0.5078125 0.015625 0  0.515625 0.015625 0  0.5234375 0.015625 0  0.53125 0.015625 0  0.5390625 0.015625 0  0.546875 0.015625 0  0.5546875 0.015625 0  0.5625 0.015625 0  0.5703125 0.015625 0  0.578125 0.015625 0  0.5859375 0.015625 0  0.59375 0.015625 0  0.6015625 0.015625 0  0.609375 0.015625 0  0.6171875 0.015625 0  0.625 0.015625 0  0.6328125 0.015625 0  0.640625 0.015625 0  0.6484375 0.015625 0  0.65625 0.015625 0  0.6640625 0.015625 0  0.671875 0.015625 0  0.6796875 0.015625 0  0.6875 0.015625 0  0.6953125 0.015625 0  0.703125 0.015625 0  0.7109375 0.015625 0  0.71875 0.015625 0  0.7265625 0.015625 0  0.734375 0.015625 0  0.7421875 0.015625 0  0.75 0.015625 0  0.7578125 0.015625 0  0.765625 0.015625 0  0.7734375 0.015625 0  0.78125 0.015625 0  0.7890625 0.015625 0  0.796875 0.015625 0  0.8046875 0.015625 0  0.8125 0.015625 0  0.8203125 0.015625 0  0.828125 0.015625 0  0.8359375 0.015625 0  0.84375 0.015625 0  0.8515625 0.015625 0  0.859375 0.015625 0  0.8671875 0.015625 0  0.875 0.015625 0  0.8828125 0.015625 0  0.890625 0.015625 0  0.8984375 0.015625 0  0.90625 0.015625 0  0.9140625 0.015625 0  0.921875 0.015625 0  0.9296875 0.015625 0  0.9375 0.015625 0  0.9453125 0.015625 0  0.953125 0.015625 0  0.9609375 0.015625 0  0.96875 0.015625 0  0.9765625 0.015625 0  0.984375 0.015625 0  0.9921875 0.015625 0  1 0.015625 0  0 0.0234375 0  0.0078125 0.0234375 0  0.015625 0.0234375 0  0.0234375 0.0234375 0  0.03125 0.0234375 0  0.0390625 0.0234375 0  0.046875 0.0234375 0  0.0546875 0.0234375 0  0.0625 0.0234375 0  0.0703125 0.0234375 0  0.078125 0.0234375 0  0.0859375 0.0234375 0  0.09375 0.0234375 0  0.1015625 0.0234375 0  0.109375 0.0234375 0  0.1171875 0.0234375 0  0.125 0.0234375 0  0.1328125 0.0234375 0  0.140625 0.0234375 0  0.1484375 0.0234375 0  0.15625 0.0234375 0  0.1640625 0.0234375 0  0.171875 0.0234375 0  0.1796875 0.0234375 0  0.1875 0.0234375 0  0.1953125 0.0234375 0  0.203125 0.0234375 0  0.2109375 0.0234375 0  0.21875 0.0234375 0  0.2265625 0.0234375 0  0.234375 0.0234375 0  0.2421875 0.0234375 0  0.25 0.0234375 0  0.2578125 0.0234375 0  0.265625 0.0234375 0  0.2734375 0.0234375 0  0.28125 0.0234375 0  0.2890625 0.0234375 0  0.296875 0.0234375 0  0.3046875 0.0234375 0  0.3125 0.0234375 0  0.3203125 0.0234375 0  0.328125 0.0234375 0  0.3359375 0.0234375 0  0.34375 0.0234375 0  0.3515625 0.0234375 0  0.359375 0.0234375 0  0.3671875 0.0234375 0  0.375 0.0234375 0  0.3828125 0.0234375 0  0.390625 0.0234375 0  0.3984375 0.0234375 0  0.40625 0.0234375 0  0.4140625 0.0234375 0  0.421875 0.0234375 0  0.4296875 0.0234375 0  0.4375 0.0234375 0  0.4453125 0.0234375 0  0.453125 0.0234375 0  0.4609375 0.0234375 0  0.46875 0.0234375 0  0.4765625 0.0234375 0  0.484375 0.0234375 0  0.4921875 0.0234375 0  0.5 0.0234375 0  0.5078125 0.0234375 0  0.515625 0.0234375 0  0.5234375 0.0234375 0  0.53125 0.0234375 0  0.5390625 0.0234375 0  0.546875 0.0234375 0  0.5546875 0.0234375 0  0.5625 0.0234375 0  0.5703125 0.0234375 0  0.578125 0.0234375 0  0.5859375 0.0234375 0  0.59375 0.0234375 0  0.6015625 0.0234375 0  0.609375 0.0234375 0  0.6171875 0.0234375 0  0.625 0.0234375 0  0.6328125 0.0234375 0  0.640625 0.0234375 0  0.6484375 0.0234375 0  0.65625 0.0234375 0  0.6640625 0.0234375 0  0.671875 0.0234375 0  0.6796875 0.0234375 0  0.6875 0.0234375 0  0.6953125 0.0234375 0  0.703125 0.0234375 0  0.7109375 0.0234375 0  0.71875 0.0234375 0  0.7265625 0.0234375 0  0.734375 0.0234375 0  0.7421875 0.0234375 0  0.75 0.0234375 0  0.7578125 0.0234375 0  0.765625 0.0234375 0  0.7734375 0.0234375 0  0.78125 0.0234375 0  0.7890625 0.0234375 0  0.796875 0.0234375 0  0.8046875 0.0234375 0  0.8125 0.0234375 0  0.8203125 0.0234375 0  0.828125 0.0234375 0  0.8359375 0.0234375 0  0.84375 0.0234375 0  0.8515625 0.0234375 0  0.859375 0.0234375 0  0.8671
[...]
<PointData  Scalars="v_sol"> 
<DataArray  type="Float64"  Name="v_sol"  format="ascii">-1.1589410554163948e-06  -4.2663617259055751e-06  -2.9780849727996775e-06  2.0306430451220975e-06  9.1835384919049126e-06  1.7149964109016730e-05  2.4935137838254937e-05  3.1724200018471183e-05  3.6894296532610847e-05  4.0058299152433397e-05  4.1100772189392232e-05  4.0175244495842044e-05  3.7659024136857823e-05  3.4076065214903245e-05  3.0006811991040287e-05  2.6004338316598471e-05  2.2530933991769107e-05  1.9921346179719677e-05  1.8371245161972392e-05  1.7944297891023619e-05  1.8589422924065446e-05  2.0161080404694044e-05  2.2438738257437348e-05  2.5145466301951073e-05  2.7968362176922805e-05  3.0583816785582774e-05  3.2687769152354926e-05  3.4025605412886842e-05  3.4410668073382874e-05  3.3718398007862743e-05  3.1848568094325844e-05  2.8661199144259882e-05  2.3906760794634032e-05  1.7180110276175132e-05  7.9188591401499521e-06  -4.5602936358513571e-06  -2.1012125045259857e-05  -4.2224551247291657e-05  -6.8994608009906444e-05  -1.0207425261161481e-04  -1.4208626955766249e-04  -1.8952617955270040e-04  -2.4477424837686759e-04  -3.0779015280192720e-04  -3.7763792517456950e-04  -4.5252092545438049e-04  -5.3036633989761005e-04  -6.0917732266199513e-04  -6.8679467230510776e-04  -7.6050036404416081e-04  -8.2692570749745933e-04  -8.8234917412105518e-04  -9.2320748775553409e-04  -9.4658835278468975e-04  -9.5054880476167663e-04  -9.3421029703326093e-04  -8.9766516862388891e-04  -8.4176891069011046e-04  -7.6789529912280779e-04  -6.7771232663520913e-04  -5.7301165945637309e-04  -4.5560237548625959e-04  -3.2726514942720084e-04  -1.8975477030496295e-04  -4.4836321230776431e-05  1.0566027044644654e-04  2.5978080929892056e-04  4.1539448030497144e-04  5.7015790324051240e-04  7.2150255269556581e-04  8.6664912925101803e-04  1.0026495451245631e-03  1.1264536999789953e-03  1.2349961036525981e-03  1.3252963672580351e-03  1.3945682992886465e-03  1.4403349060494546e-03  1.4605496918242836e-03  1.4537270707368512e-03  1.4190843256582991e-03  1.3566924801533954e-03  1.2676233146547062e-03  1.1540656611401644e-03  1.0193711455302042e-03  8.6798378227732063e-04  7.0521710481311799e-04  5.3686922009014417e-04  3.6870758682960701e-04  2.0589945496506871e-04  5.2497251613571472e-05  -8.8901882042730855e-05  -2.1722009101832624e-04  -3.3262487629364968e-04  -4.3591485081007888e-04  -5.2764005139252447e-04  -6.0713576212991264e-04  -6.7178376523693991e-04  -7.1694073696875501e-04  -7.3695236042364614e-04  -7.2728717933664045e-04  -6.8702034468902070e-04  -6.2020394202125251e-04  -5.3508035533548137e-04  -4.4172290333669204e-04  -3.4963204962564078e-04  -2.6605715963575578e-04  -1.9518555728344618e-04  -1.3831623883316652e-04  -9.4711986729745405e-05  -6.2552907795626980e-05  -3.9657181276917749e-05  -2.3900578961786283e-05  -1.3399466747337405e-05  -6.5608559161715054e-06  -2.0817540858926735e-06  1.0612736888589430e-06  3.6221832838801488e-06  6.0976791550156353e-06  8.7448335448358574e-06  1.1604664681154083e-05  1.4530966427211720e-05  1.7224317265018635e-05  1.9270908535303780e-05  2.0188133828690392e-05  1.9468438362629454e-05  1.6664803407710251e-05  1.1505902696300114e-05  4.9898894617027520e-06  -5.2688913358490858e-08  1.9262924270888231e-06  2.6815819139110213e-05  2.1182749286489596e-05  -6.1471426639111129e-06  -4.4291470876713550e-05  -8.6545087838373882e-05  -1.2778887442152660e-04  -1.6376571107785975e-04  -1.9114185674726689e-04  -2.0781674700848119e-04  -2.1315594758892513e-04  -2.0799684164421185e-04  -1.9440114545282150e-04  -1.7522155904131761e-04  -1.5359675806313251e-04  -1.3248916025026476e-04  -1.1434550312495045e-04  -1.0091122177776926e-04  -9.3184970175439017e-05  -9.1471605732627663e-05  -9.5484252341356140e-05  -1.0445562325095595e-04  -1.1723877398509425e-04  -1.3239961488640615e-04  -1.4831936597004016e-04  -1.6332705001711599e-04  -1.7586566940112908e-04  -1.8466331335102720e-04  -1.8884577299414155e-04  -1.8791363784837964e-04  -1.8153634416508404e-04  -1.6919167625543529e-04  -1.4977259212424135e-04  -1.2133213255087258e-04  -8.1075308429204505e-05  -2.5571169987272796e-05  4.8937739249822689e-05  1.4633580513726173e-04  2.7064737079537232e-04  4.2584347651660360e-04  6.1523371689551102e-04  8.4139432338922108e-04  1.1065683809842269e-03  1.4113752340285781e-03  1.7522675269182782e-03  2.1215705888910216e-03  2.5102855093601796e-03  2.9094259100313829e-03  3.3084717887748617e-03  3.6936624030743208e-03  4.0482732821026180e-03  4.3546141580543696e-03  4.5964522981855110e-03  4.7608324951448283e-03  4.8389159642588534e-03  4.8259418685806677e-03  4.7206171743781229e-03  4.5242467487735865e-03  4.2398393955858978e-03  3.8713358393377725e-03  3.4230329365071725e-03  2.8992312812039902e-03  2.3041060139968399e-03  1.6417878365837086e-03  9.1663544908031694e-04  1.3367689091787517e-04  -7.0080786112883568e-04  -1.5786020042212873e-03  -2.4888200420796927e-03  -3.4172084739521880e-03  -4.3455848956973518e-03  -5.2515467288387309e-03  -6.1085950478440244e-03  -6.8868125713566868e-03  -7.5541975219608343e-03  -8.0786788008240119e-03  -8.4307248990596727e-03  -8.5863198452645253e-03  -8.5299417543064741e-03  -8.2570790435167341e-03  -7.7757971609214074e-03  -7.1069531113219682e-03  -6.2828505783154411e-03  -5.3444039248744454e-03  -4.3371721848381346e-03  -3.3068560039836588e-03  -2.2949556057180777e-03  -1.3352396957214423e-03  -4.5149714837523818e-04  3.4319608329832552e-04  1.0456859301304310e-03  1.6605717774787767e-03  2.1969006963672775e-03  2.6640549531086266e-03  3.0673414608382841e-03  3.4041173521612818e-03  3.6617097569734414e-03  3.8186550621366264e-03  3.8504045365855793e-03  3.7390709677438917e-03  3.4840213655414148e-03  3.1076458727806924e-03  2.6517586213362894e-03  2.1663100497692029e-03  1.6972157945029627e-03  1.2781351868172987e-03  9.2725811450469103e-04  6.4881135276532217e-04  4.3749747282503777e-04  2.8323958255595819e-04  1.7465397781578029e-04  1.0096748606537181e-04  5.2766275284995031e-05  2.2134163433657445e-05  2.5988731831412517e-06  -1.0927079231714147e-05  -2.2185504389741218e-05  -3.3621306966020815e-05  -4.6462497865802075e-05  -6.0832923102080793e-05  -7.5892372302476633e-05  -9.0003116912799414e-05  -1.0092617666766607e-04  -1.0604405725918817e-04  -1.0259839067354590e-04  -8.7935065595402879e-05  -6.0108003378296931e-05  -2.0980554833247599e-05  6.3639337243673439e-06  1.1753402764755615e-05  7.3562678590193882e-05  3.5897897075026105e-05  -7.3627345051682829e-05  -2.2302874983570612e-04  -3.8749045141823091e-04  -5.4689688053974068e-04  -6.8470232986552371e-04  -7.8840779703315820e-04  -8.5049799524581271e-04  -8.6902984765146443e-04  -8.4745237634186365e-04  -7.9361489748860589e-04  -7.1819344471328692e-04  -6.3290024835833795e-04  -5.4883798771169319e-04  -4.7525712916520287e-04  -4.1882648626754675e-04  -3.8338762857297395e-04  -3.7006973023873292e-04  -3.7760784356163625e-04  -4.0272983870155964e-04  -4.4053702692116296e-04  -4.8487446311016056e-04  -5.2873945799791365e-04  -5.6478306187638337e-04  -5.8590271211309073e-04  -5.8581504698994086e-04  -5.5938285021347393e-04  -5.0243342388553577e-04  -4.1092770307751781e-04  -2.7961827867109350e-04  -1.0067067753507803e-04  1.3710096665269775e-04  4.4800728995110538e-04  8.4843865390819460e-04  1.3552790641690460e-03  1.9842211105299289e-03  2.7489805433414003e-03  3.6604351452204022e-03  4.7229296553578191e-03  5.9304148272887160e-03  7.2671143346275087e-03  8.7083456013869395e-03  1.0217016063093049e-02  1.1741706094237574e-02  1.3220919283879621e-02  1.4589955412389818e-02  1.5786831177742329e-02  1.6757003709019329e-02  1.7457195354616192e-02  1.7857943412484079e-02  1.7944412706066566e-02  1.7715429875812348e-02  1.7181139182369420e-02  1.6359906949162270e-02  1.5275094142314483e-02  1.3952170753920641e-02  1.2416451102636445e-02  1.0691557856564261e-02  8.7985996004700077e-03  6.7559795978596486e-03  4.5797278859639468e-03  2.2842509499507646e-03  -1.1659297749809538e-04  -2.6081711689781985e-03  -5.1735778722809527e-03  -7.7920383627962152e-03  -1.0437314273306427e-02  -1.3076244174735664e-02  -1.5667596827567010e-02  -1.8161460438150669e-02  -2.0499424064243352e-02  -2.2615810014635678e-02  -2.4440168027212609e-02  -2.5901123386351768e-02  -2.6931477000353241e-02  -2.7474196137690046e-02  -2.7488654689254141e-02  -2.6956249101521220e-02  -2.5884416763571477e-02  -2.4308186242266803e-02  -2.2288715561915778e-02  -1.9908773083642566e-02  -1.7265665038844125e-02  -1.4462564911434186e-02  -1.1599435649480530e-02  -8.7647217204720688e-03  -6.0287820002928845e-03  -3.4397509955004010e-03  -1.0222692034092028e-03  1.2206272940115943e-03  3.3022473392680350e-03  5.2435324269179762e-03  7.0611897100667882e-03  8.7538448985934065e-03  1.0288919651849278e-02  1.1594923963010522e-02  1.2565343640905722e-02  1.3079351219785458e-02  1.3038944067309148e-02  1.2411765518316671e-02  1.1259349929894320e-02  9.7320186683161631e-03  8.0287009418598676e-03  6.3419111889601006e-03  4.8152938377438266e-03  3.5279185533368500e-03  2.5017411901187198e-03  1.7202705264048460e-03  1.1474855021113041e-03  7.4135172870140381e-04  4.6130899704111754e-04  2.7156471954464101e-04  1.4223130263239881e-04  4.9584821991136342e-05  -2.4023428007833389e-05  -9.0459547563193784e-05  -1.5626769636831501e-04  -2.2326372737479187e-04  -2.8922825204723859e-04  -3.4868758002036418e-04  -3.9379063073378555e-04  -4.1529471838615972e-04  -4.0368523494956825e-04  -3.5066280282486975e-04  -2.5208911258698503e-04  -1.1787486543996098e-04  7.2675498813506889e-06  2.0860616559376725e-05  9.2551275682718789e-05  -1.1391344577576181e-05  -2.4286715357113296e-04  -5.4685684715555488e-04  -8.7661061469991087e-04  -1.1922618053309619e-03  -1.4611260609131067e-03  -1.6592402552573461e-03  -1.7730277794506747e-03  -1.8000173679814555e-03  -1.7480898936741711e-03  -1.6333056485708570e-03  -1.4767878002935506e-03  -1.3013217209445784e-03  -1.1282885020344096e-03  -9.7535694414491994e-04  -8.5510529501134922e-04  -7.7451382065561692e-04  -7.3511512770383812e-04  -7.3353240350315066e-04  -7.6217056126547946e-04  -8.0992474671377963e-04  -8.6289231440529312e-04  -9.0516507150052087e-04  -9.1978524919764798e-04  -8.8983691700138907e-04  -7.9943260479167810e-04  -6.3414906020366137e-04  -3.8042354218311688e-04  -2.3726892404961830e-05  4.5400261677650878e-04  1.0766094387279100e-03  1.8743532916915559e-03  2.8818707514977030e-03  4.1342940213082218e-03  5.6633473099694642e-03  7.4921549730247537e-03  9.6285775752836464e-03  1.2061440175857661e-02  1.4757968724304434e-02  1.7658092088838052e-02  2.0671222701085262e-02  2.3680673506273335e-02  2.6553532409014206e-02  2.9153992756435404e-02  3.1358126712296507e-02  3.3066690484149758e-02  3.4213257296054532e-02  3.4766528751037550e-02  3.4727424943297953e-02  3.4122738378654593e-02  3.2997353111718433e-02  3.1406594859364367e-02  2.9409662102260842e-02  2.7064558176520526e-02  2.4424584539519716e-02  2.1536246712413679e-02  1.8438329835065048e-02  1.5161880217038973e-02  1.1730854381561314e-02  8.1632441726735318e-03  4.4725406843354716e-03  6.6944897496195774e-04  -3.2361959838775830e-03  -7.2333389573366966e-03  -1.1307461836092363e-02  -1.5438226592653754e-02  -1.9597078560901388e-02  -2.3744944373624843e-02  -2.7830236163142098e-02  -3.1787463122962253e-02  -3.5536834525055620e-02  -3.8985291003272443e-02  -4.2029386814769629e-02  -4.4560326453415941e-02  -4.6471203000677919e-02  -4.7666088591570850e-02  -4.8070132355792126e-02  -4.7639329970847008e-02  -4.6368297810090504e-02  -4.4294379808511322e-02  -4.1496846985284629e-02  -3.8090797436604651e-02  -3.4216436138574231e-02  -3.0025389368512387e-02  -2.5666257486880600e-02  -2.1271556790637147e-02  -1.6947622223760145e-02  -1.2768242859754007e-02  -8.7721567510838927e-03  -4.9643006820724580e-03  -1.3209229410973127e-03  2.2008811353426685e-03  5.6483439208332631e-03  9.0523882188190252e-03  1.2402219146466838e-02  1.5619402476818242e-02  1.8540354709972562e-02  2.0920578327228954e-02  2.2474037473956862e-02  2.2951029603542891e-02  2.2235157585001785e-02  2.0414305275702194e-02  1.7777556853994111e-02  1.4728973591190861e-02  1.1664768259247751e-02  8.8789935255378198e-03  6.5308966032521154e-03  4.6636533552451799e-03  3.2448880358831892e-03  2.2050102960913596e-03  1.4634302151408417e-03  9.4299020336475808e-04  5.7665018862612335e-04  3.1005021995364306e-04  1.0205808612567829e-04  -7.5719815140631329e-05  -2.4001933889271514e-04  -3.9734681254743469e-04  -5.4561104917840819e-04  -6.7589980532420889e-04  -7.7440677764318785e-04  -8.2455637826841361e-04  -8.0944939306783670e-04  -7.1501956900255320e-04  -5.3525795402885020e-04  -2.8225731893287252e-04  1.6351628208118773e-06  2.8223180043656528e-05  6.4561799220941700e-05  -1.4493242230683015e-04  -5.3673259838029740e-04  -1.0306707046382985e-03  -1.5553266283199671e-03  -2.0482388762438544e-03  -2.4584808935548602e-03  -2.7499672436233622e-03  -2.9039859190619485e-03  -2.9197482063074232e-03  -2.8124969891522330e-03  -2.6095204023840264e-03  -2.3449600168923270e-03  -2.0544662190801512e-03  -1.7705884201136477e-03  -1.5194367857125932e-03  -1.3187668032581549e-03  -1.1773266044590818e-03  -1.0951221682368186e-03  -1.0642064329951660e-03  -1.0696669515606746e-03  -1.0906361926442932e-03  -1.1013231550027309e-03  -1.0721892952550880e-03  -9.7137896462686022e-04  -7.6631317325941692e-04  -4.2500064289400428e-04  8.3687884881834866e-05  7.9141134869980406e-04  1.7333851235493592e-03  2.9517680400640068e-03  4.4967922924573737e-03  6.4240178921158800e-03  8.7876677735697351e-03  1.1629537811857113e-02  1.4966973304882291e-02  1.8784569633409114e-02  2.3025788888275785e-02  2.7583981275292799e-02  3.2300965110401189e-02  3.6976728114038016e-02  4.1389336536675585e-02  4.5321932377385965e-02  4.8589868451062182e-02  5.1060668126943355e-02  5.2662667084519360e-02  5.3382501804429626e-02  5.3254603174233611e-02  5.2346930937049764e-02  5.0746656788485327e-02  4.8548101589213633e-02  4.5843838918002359e-02  4.2718905031180789e-02  3.9247569716905351e-02  3.5491986319267282e-02  3.1502105055404316e-02  2.7316373344328623e-02  2.2962897088857060e-02  1.8460859776848040e-02  1.3822090799956142e-02  9.0527379074733655e-03  4.1550435318780917e-03  -8.7074892559674429e-04  -6.0243167050158990e-03  -1.1302962623036926e-02  -1.6699067828477739e-02  -2.2197283788641761e-02  -2.7771501428545720e-02  -3.3381709104827087e-02  -3.8970951993319278e-02  -4.4462734656595039e-02  -4.9759352343429333e-02  -5.4741772237725549e-02  -5.9271769291518756e-02  -6.3196992131741764e-02  -6.6359426113218142e-02  -6.8607274568866811e-02  -6.9809592738675708e-02  -6.9872156077444084e-02  -6.8752219056982186e-02  -6.6469302496720881e-02  -6.3109240652817020e-02  -5.8819612719430231e-02  -5.3796315260552015e-02  -4.8263020966735522e-02  -4.2446984790419799e-02  -3.6555467254785402e-02  -3.0756612736903381e-02  -2.5167138017517739e-02  -1.9847320532924203e-02  -1.4802358628421749e-02  -9.9887859704417253e-03  -5.3253174214324258e-03  -7.0882441099987469e-04  3.9627226326312019e-03  8.7585494964666048e-03  1.3675104434489107e-02  1.8593677613508046e-02  2.3249746616942995e-02  2.7236614461332756e-02  3.0067462721180070e-02  3.1303956453030468e-02  3.0720146220247487e-02  2.8424005112467132e-02  2.4852720557356003e-02  2.0627784448364182e-02  1.6353449667604360e-02  1.2469077790975043e-02  9.2049604462247116e-03  6.6177268891401460e-03  4.6547979453093868e-03  3.2118192004149848e-03  2.1707893707552080e-03  1.4210158995115654e-03  8.6894113090442004e-04  4.4173890228583438e-04  8.7591482714592807e-05  -2.2578687007507144e-04  -5.1352417457065157e-04  -7.7639630861920338e-04  -1.0038519035926049e-03  -1.1772152569087591e-03  -1.2731322014641034e-03  -1.2674092656494427e-03  -1.1395652263294375e-03  -8.7860999797924246e-04  -4.8989638244502983e-04  -6.0359315079728243e-06  3.4722320602838105e-05  -1.7990394331716483e-05  -3.8021933976353268e-04  -9.7399275533732157e-04  -1.6923839484505262e-03  -2.4360192336965432e-03  -3.1170198983916228e-03  -3.6647408114853304e-03  -4.0314588798408034e-03  -4.1958572297030880e-03  -4.1629015070216496e-03  -3.9599131117580844e-03  -3.6297851729363401e-03  -3.2229263253016082e-03  -2.7895373758956427e-03  -2.3733868201611260e-03  -2.0076308673375835e-03  -1.7126628878822406e-03  -1.4956039134208635e-03  -1.3508830626544719e-03  -1.2613710121808564e-03  -1.1996722328542662e-03  -1.1294022636437200e-03  -1.0065083964127682e-03  -7.8083531729994978e-04  -3.9806896144075406e-04  1.9817610987907480e-04  1.0648690748395783e-03  2.2596966872160886e-03  3.8433239549738444e-03  5.8823494981451990e-03  8.4500321847036028e-03  1.1621569802609026e-02  1.5460760768499863e-02  2.0001092703645296e-02  2.5228147031890170e-02  3.1063288873166280e-02  3.7350876649293555e-02  4.3857713502338476e-02  5.0290076845188061e-02  5.6328514036116731e-02  6.1672797871765994e-02  6.6083011820204748e-02  6.9404625849246365e-02  7.1573275095824049e-02  7.2603011169929538e-02  7.2565597995993644e-02  7.1568053974809698e-02  6.9733175178183213e-02  6.7185133151125939e-02  6.4040265877418789e-02  6.0402139254922306e-02  5.6359614019207097e-02  5.1986752846306730e-02  4.7343682490476435e-02  4.2477845347389930e-02  3.7425333565890784e-02  3.2212182052733830e-02  2.6855599949871065e-02  2.1365172279486803e-02  1.5744081259713483e-02  9.9904014916872719e-03  4.0985232523400687e-03  -1.9392394822166762e-03  -8.1307965323183344e-03  -1.4482120381215449e-02  -2.0994714062560767e-02  -2.7662656308140469e-02  -3.4469202094511452e-02  -4.1382973146294875e-02  -4.8353866346188865e-02  -5.5308946495000004e-02  -6.2148775276785750e-02  -6.8744849388574766e-02  -7.4939046033772966e-02  -8.0546138140312390e-02  -8.5360453515532481e-02  -8.9167492474875293e-02  -9.1760691185637885e-02  -9.2962487500101623e-02  -9.2647522581393651e-02  -9.0764477768388543e-02  -8.7352153717443551e-02  -8.2545436919607695e-02  -7.6568102390806608e-02  -6.9711915955041157e-02  -6.2304664340285504e-02  -5.4672574132182232e-02  -4.7104028149732011e-02  -3.9820908922222481e-02  -3.2961472493026785e-02  -2.6575408917345378e-02  -2.0629127103700164e-02  -1.5018449066432207e-02  -9.5870440336551579e-03  -4.1512809437988501e-03  1.4657529961862317e-03  7.3882212103030531e-03  1.3630068865848095e-02  2.0034691107210126e-02  2.6232512232677776e-02  3.1649545648072729e-02  3.5601413638777307e-02  3.7481266842330691e-02  3.6989547968744596e-02  3.4289247625824457e-02  2.9975699943982248e-02  2.4862327487891907e-02  1.9712086969476975e-02  1.5058894130881476e-02  1.1168053120310243e-02  8.0919906489262446e-03  5.7543664465876604e-03  4.0209041859008829e-03  2.7453666904758405e-03  1.7946454321070885e-03  1.0602566532475690e-03  4.6196544563000973e-04  -5.2868683173027118e-05  -5.1212777253460738e-04  -9.2278198705369899e-04  -1.2751677012015302e-03  -1.5474926767048011e-03  -1.7105747045975533e-03  -1.7329048409215394e-03  -1.5860899055247237e-03  -1.2504122586208736e-03  -7.1936256837035694e-04  -1.4758704564783013e-05  4.1182181084141537e-05  -1.5938074935574519e-04  -7.3017121833289403e-04  -1.5751355240792575e-03  -2.5562473848259226e-03  -3.5414917608931015e-03  -4.4138835716966852e-03  -5.0817617912446364e-03  -5.4875579405694293e-03  -5.6120709729056504e-03  -5.4726640160561585e-03  -5.1158125844962656e-03  -4.6060546893649454e-03  -4.0140268222699964e-03  -3.4059057761908727e-03  -2.8356297146281844e-03  -2.3402506458321285e-03  -1.9380196636952117e-03  -1.6284345631383187e-03  -1.3934262718142687e-03  -1.1990086837648112e-03  -9.9697120529613939e-04  -7.2649538784750798e-04  -3.1586334281638188e-04  3.1543523283371328e-04  1.2540756795638660e-03  2.5901767994256915e-03  4.4155625824933179e-03  6.8237385964207758e-03  9.9105432590617642e-03  1.3772179697106252e-02  1.8494683644681906e-02  2.4132399425253873e-02  3.0681101662450819e-02  3.8050882344102518e-02  4.6045443904282703e-02  5.4359571023985975e-02  6.2603642277012234e-02