<?xml version="1.0"?>
<VTKFile type="UnstructuredGrid"  version="0.1"  >
<UnstructuredGrid>
<Piece  NumberOfPoints="16641" NumberOfCells="16384">
<Points>
<DataArray  type="Float64"  NumberOfComponents="3"  format="ascii">0 0 0  0.0078125 0 0  0.015625 0 0  0.0234375 0 0  0.03125 0 0  0.0390625 0 0  0.046875 0 0  0.0546875 0 0  0.0625 0 0  0.0703125 0 0  0.078125 0 0  0.0859375 0 0  0.09375 0 0  0.1015625 0 0  0.109375 0 0  0.1171875 0 0  0.125 0 0  0.1328125 0 0  0.140625 0 0  0.1484375 0 0  0.15625 0 0  0.1640625 0 0  0.171875 0 0  0.1796875 0 0  0.1875 0 0  0.1953125 0 0  0.203125 0 0  0.2109375 0 0  0.21875 0 0  0.2265625 0 0  0.234375 0 0  0.2421875 0 0  0.25 0 0  0.2578125 0 0  0.265625 0 0  0.2734375 0 0  0.28125 0 0  0.2890625 0 0  0.296875 0 0  0.3046875 0 0  0.3125 0 0  0.3203125 0 0  0.328125 0 0  0.3359375 0 0  0.34375 0 0  0.3515625 0 0  0.359375 0 0  0.3671875 0 0  0.375 0 0  0.3828125 0 0  0.390625 0 0  0.3984375 0 0  0.40625 0 0  0.4140625 0 0  0.421875 0 0  0.4296875 0 0  0.4375 0 0  0.4453125 0 0  0.453125 0 0  0.4609375 0 0  0.46875 0 0  0.4765625 0 0  0.484375 0 0  0.4921875 0 0  0.5 0 0  0.5078125 0 0  0.515625 0 0  0.5234375 0 0  0.53125 0 0  0.5390625 0 0  0.546875 0 0  0.5546875 0 0  0.5625 0 0  0.5703125 0 0  0.578125 0 0  0.5859375 0 0  0.59375 0 0  0.6015625 0 0  0.609375 0 0  0.6171875 0 0  0.625 0 0  0.6328125 0 0  0.640625 0 0  0.6484375 0 0  0.65625 0 0  0.6640625 0 0  0.671875 0 0  0.6796875 0 0  0.6875 0 0  0.6953125 0 0  0.703125 0 0  0.7109375 0 0  0.71875 0 0  0.7265625 0 0  0.734375 0 0  0.7421875 0 0  0.75 0 0  0.7578125 0 0  0.765625 0 0  0.7734375 0 0  0.78125 0 0  0.7890625 0 0  0.796875 0 0  0.8046875 0 0  0.8125 0 0  0.8203125 0 0  0.828125 0 0  0.8359375 0 0  0.84375 0 0  0.8515625 0 0  0.859375 0 0  0.8671875 0 0  0.875 0 0  0.8828125 0 0  0.890625 0 0  0.8984375 0 0  0.90625 0 0  0.9140625 0 0  0.921875 0 0  0.9296875 0 0  0.9375 0 0  0.9453125 0 0  0.953125 0 0  0.9609375 0 0  0.96875 0 0  0.9765625 0 0  0.984375 0 0  0.9921875 0 0  1 0 0  0 0.0078125 0  0.0078125 0.0078125 0  0.015625 0.0078125 0  0.0234375 0.0078125 0  0.03125 0.0078125 0  0.0390625 0.0078125 0  0.046875 0.0078125 0  0.0546875 0.0078125 0  0.0625 0.0078125 0  0.0703125 0.0078125 0  0.078125 0.0078125 0  0.0859375 0.0078125 0  0.09375 0.0078125 0  0.1015625 0.0078125 0  0.109375 0.0078125 0  0.1171875 0.0078125 0  0.125 0.0078125 0  0.1328125 0.0078125 0  0.140625 0.0078125 0  0.1484375 0.0078125 0  0.15625 0.0078125 0  0.1640625 0.0078125 0  0.171875 0.0078125 0  0.1796875 0.0078125 0  0.1875 0.0078125 0  0.1953125 0.0078125 0  0.203125 0.0078125 0  0.2109375 0.0078125 0  0.21875 0.0078125 0  0.2265625 0.0078125 0  0.234375 0.0078125 0  0.2421875 0.0078125 0  0.25 0.0078125 0  0.2578125 0.0078125 0  0.265625 0.0078125 0  0.2734375 0.0078125 0  0.28125 0.0078125 0  0.2890625 0.0078125 0  0.296875 0.0078125 0  0.3046875 0.0078125 0  0.3125 0.0078125 0  0.3203125 0.0078125 0  0.328125 0.0078125 0  0.3359375 0.0078125 0  0.34375 0.0078125 0  0.3515625 0.0078125 0  0.359375 0.0078125 0  0.3671875 0.0078125 0  0.375 0.0078125 0  0.3828125 0.0078125 0  0.390625 0.0078125 0  0.3984375 0.0078125 0  0.40625 0.0078125 0  0.4140625 0.0078125 0  0.421875 0.0078125 0  0.4296875 0.0078125 0  0.4375 0.0078125 0  0.4453125 0.0078125 0  0.453125 0.0078125 0  0.4609375 0.0078125 0  0.46875 0.0078125 0  0.4765625 0.0078125 0  0.484375 0.0078125 0  0.4921875 0.0078125 0  0.5 0.0078125 0  0.5078125 0.0078125 0  0.515625 0.0078125 0  0.5234375 0.0078125 0  0.53125 0.0078125 0  0.5390625 0.0078125 0  0.546875 0.0078125 0  0.5546875 0.0078125 0  0.5625 0.0078125 0  0.5703125 0.0078125 0  0.578125 0.0078125 0  0.5859375 0.0078125 0  0.59375 0.0078125 0  0.6015625 0.0078125 0  0.609375 0.0078125 0  0.6171875 0.0078125 0  0.625 0.0078125 0  0.6328125 0.0078125 0  0.640625 0.0078125 0  0.6484375 0.0078125 0  0.65625 0.0078125 0  0.6640625 0.0078125 0  0.671875 0.0078125 0  0.6796875 0.0078125 0  0.6875 0.0078125 0  0.6953125 0.0078125 0  0.703125 0.0078125 0  0.7109375 0.0078125 0  0.71875 0.0078125 0  0.7265625 0.0078125 0  0.734375 0.0078125 0  0.7421875 0.0078125 0  0.75 0.0078125 0  0.7578125 0.0078125 0  0.765625 0.0078125 0  0.7734375 0.0078125 0  0.78125 0.0078125 0  0.7890625 0.0078125 0  0.796875 0.0078125 0  0.8046875 0.0078125 0  0.8125 0.0078125 0  0.8203125 0.0078125 0  0.828125 0.0078125 0  0.8359375 0.0078125 0  0.84375 0.0078125 0  0.8515625 0.0078125 0  0.859375 0.0078125 0  0.8671875 0.0078125 0  0.875 0.0078125 0  0.8828125 0.0078125 0  0.890625 0.0078125 0  0.8984375 0.0078125 0  0.90625 0.0078125 0  0.9140625 0.0078125 0  0.921875 0.0078125 0  0.9296875 0.0078125 0  0.9375 0.0078125 0  0.9453125 0.0078125 0  0.953125 0.0078125 0  0.9609375 0.0078125 0  0.96875 0.0078125 0  0.9765625 0.0078125 0  0.984375 0.0078125 0  0.9921875 0.0078125 0  1 0.0078125 0  0 0.015625 0  0.0078125 0.015625 0  0.015625 0.015625 0  0.0234375 0.015625 0  0.03125 0.015625 0  0.0390625 0.015625 0  0.046875 0.015625 0  0.0546875 0.015625 0  0.0625 0.015625 0  0.0703125 0.015625 0  0.078125 0.015625 0  0.0859375 0.015625 0  0.09375 0.015625 0  0.1015625 0.015625 0  0.109375 0.015625 0  0.1171875 0.015625 0  0.125 0.015625 0  0.1328125 0.015625 0  0.140625 0.015625 0  0.1484375 0.015625 0  0.15625 0.015625 0  0.1640625 0.015625 0  0.171875 0.015625 0  0.1796875 0.015625 0  0.1875 0.015625 0  0.1953125 0.015625 0  0.203125 0.015625 0  0.2109375 0.015625 0  0.21875 0.015625 0  0.2265625 0.015625 0  0.234375 0.015625 0  0.2421875 0.015625 0  0.25 0.015625 0  0.2578125 0.015625 0  0.265625 0.015625 0  0.2734375 0.015625 0  0.28125 0.015625 0  0.2890625 0.015625 0  0.296875 0.015625 0  0.3046875 0.015625 0  0.3125 0.015625 0  0.3203125 0.015625 0  0.328125 0.015625 0  0.3359375 0.015625 0  0.34375 0.015625 0  0.3515625 0.015625 0  0.359375 0.015625 0  0.3671875 0.015625 0  0.375 0.015625 0  0.3828125 0.015625 0  0.390625 0.015625 0  0.3984375 0.015625 0  0.40625 0.015625 0  0.4140625 0.015625 0  0.421875 0.015625 0  0.4296875 0.015625 0  0.4375 0.015625 0  0.4453125 0.015625 0  0.453125 0.015625 0  0.4609375 0.015625 0  0.46875 0.015625 0  0.4765625 0.015625 0  0.484375 0.015625 0  0.4921875 0.015625 0  0.5 0.015625 0  0.5078125 0.015625 0  0.515625 0.015625 0  0.5234375 0.015625 0  0.53125 0.015625 0  0.5390625 0.015625 0  0.546875 0.015625 0  0.5546875 0.015625 0  0.5625 0.015625 0  0.5703125 0.015625 0  0.578125 0.015625 0  0.5859375 0.015625 0  0.59375 0.015625 0  0.6015625 0.015625 0  0.609375 0.015625 0  0.6171875 0.015625 0  0.625 0.015625 0  0.6328125 0.015625 0  0.640625 0.015625 0  0.6484375 0.015625 0  0.65625 0.015625 0  0.6640625 0.015625 0  0.671875 0.015625 0  0.6796875 0.015625 0  0.6875 0.015625 0  0.6953125 0.015625 0  0.703125 0.015625 0  0.7109375 0.015625 0  0.71875 0.015625 0  0.7265625 0.015625 0  0.734375 0.015625 0  0.7421875 0.015625 0  0.75 0.015625 0  0.7578125 0.015625 0  0.765625 0.015625 0  0.7734375 0.015625 0  0.78125 0.015625 0  0.7890625 0.015625 0  0.796875 0.015625 0  0.8046875 0.015625 0  0.8125 0.015625 0  0.8203125 0.015625 0  0.828125 0.015625 0  0.8359375 0.015625 0  0.84375 0.015625 0  0.8515625 0.015625 0  0.859375 0.015625 0  0.8671875 0.015625 0  0.875 0.015625 0  0.8828125 0.015625 0  0.890625 0.015625 0  0.8984375 0.015625 0  0.90625 0.015625 0  0.9140625 0.015625 0  0.921875 0.015625 0  0.9296875 0.015625 0  0.9375 0.015625 0  0.9453125 0.015625 0  0.953125 0.015625 0  0.9609375 0.015625 0  0.96875 0.015625 0  0.9765625 0.015625 0  0.984375 0.015625 0  0.9921875 0.015625 0  1 0.015625 0  0 0.0234375 0  0.0078125 0.0234375 0  0.015625 0.0234375 0  0.0234375 0.0234375 0  0.03125 0.0234375 0  0.0390625 0.0234375 0  0.046875 0.0234375 0  0.0546875 0.0234375 0  0.0625 0.0234375 0  0.0703125 0.0234375 0  0.078125 0.0234375 0  0.0859375 0.0234375 0  0.09375 0.0234375 0  0.1015625 0.0234375 0  0.109375 0.0234375 0  0.1171875 0.0234375 0  0.125 0.0234375 0  0.1328125 0.0234375 0  0.140625 0.0234375 0  0.1484375 0.0234375 0  0.15625 0.0234375 0  0.1640625 0.0234375 0  0.171875 0.0234375 0  0.1796875 0.0234375 0  0.1875 0.0234375 0  0.1953125 0.0234375 0  0.203125 0.0234375 0  0.2109375 0.0234375 0  0.21875 0.0234375 0  0.2265625 0.0234375 0  0.234375 0.0234375 0  0.2421875 0.0234375 0  0.25 0.0234375 0  0.2578125 0.0234375 0  0.265625 0.0234375 0  0.2734375 0.0234375 0  0.28125 0.0234375 0  0.2890625 0.0234375 0  0.296875 0.0234375 0  0.3046875 0.0234375 0  0.3125 0.0234375 0  0.3203125 0.0234375 0  0.328125 0.0234375 0  0.3359375 0.0234375 0  0.34375 0.0234375 0  0.3515625 0.0234375 0  0.359375 0.0234375 0  0.3671875 0.0234375 0  0.375 0.0234375 0  0.3828125 0.0234375 0  0.390625 0.0234375 0  0.3984375 0.0234375 0  0.40625 0.0234375 0  0.4140625 0.0234375 0  0.421875 0.0234375 0  0.4296875 0.0234375 0  0.4375 0.0234375 0  0.4453125 0.0234375 0  0.453125 0.0234375 0  0.4609375 0.0234375 0  0.46875 0.0234375 0  0.4765625 0.0234375 0  0.484375 0.0234375 0  0.4921875 0.0234375 0  0.5 0.0234375 0  0.5078125 0.0234375 0  0.515625 0.0234375 0  0.5234375 0.0234375 0  0.53125 0.0234375 0  0.5390625 0.0234375 0  0.546875 0.0234375 0  0.5546875 0.0234375 0  0.5625 0.0234375 0  0.5703125 0.0234375 0  0.578125 0.0234375 0  0.5859375 0.0234375 0  0.59375 0.0234375 0  0.6015625 0.0234375 0  0.609375 0.0234375 0  0.6171875 0.0234375 0  0.625 0.0234375 0  0.6328125 0.0234375 0  0.640625 0.0234375 0  0.6484375 0.0234375 0  0.65625 0.0234375 0  0.6640625 0.0234375 0  0.671875 0.0234375 0  0.6796875 0.0234375 0  0.6875 0.0234375 0  0.6953125 0.0234375 0  0.703125 0.0234375 0  0.7109375 0.0234375 0  0.71875 0.0234375 0  0.7265625 0.0234375 0  0.734375 0.0234375 0  0.7421875 0.0234375 0  0.75 0.0234375 0  0.7578125 0.0234375 0  0.765625 0.0234375 0  0.7734375 0.0234375 0  0.78125 0.0234375 0  0.7890625 0.0234375 0  0.796875 0.0234375 0  0.8046875 0.0234375 0  0.8125 0.0234375 0  0.8203125 0.0234375 0  0.828125 0.0234375 0  0.8359375 0.0234375 0  0.84375 0.0234375 0  0.8515625 0.0234375 0  0.859375 0.0234375 0  0.8671
[...]
<PointData  Scalars="u_sol"> 
<DataArray  type="Float64"  Name="u_sol"  format="ascii">1.1441659003293969e-06  -1.0819320516893414e-05  -2.0826352654628634e-05  -1.9652363192014729e-05  -1.1870342644475462e-05  4.7588175630289926e-07  1.5360958059545897e-05  3.1255286783095757e-05  4.6830721548415645e-05  6.1051536585199568e-05  7.3200376828428450e-05  8.2907642549664799e-05  9.0138749134028326e-05  9.5150192458605770e-05  9.8422315378787011e-05  1.0058249591002188e-04  1.0232972729895743e-04  1.0436791964071621e-04  1.0735120555972204e-04  1.1184192975284152e-04  1.1828120036560191e-04  1.2697250162218201e-04  1.3807975808994167e-04  1.5164119414118435e-04  1.6759855232805504e-04  1.8583794256162299e-04  2.0623500247074104e-04  2.2869482829041162e-04  2.5317766329376902e-04  2.7970479838994907e-04  3.0834444506228125e-04  3.3918248779151946e-04  3.7228609015660960e-04  4.0766814423380055e-04  4.4525792634758751e-04  4.8487957059348909e-04  5.2623688407425328e-04  5.6890174413428123e-04  6.1230395116959472e-04  6.5572212229708595e-04  6.9827687354343177e-04  7.3892849957687555e-04  7.7648143516653159e-04  8.0959727506280945e-04  8.3681743796418077e-04  8.5659577382062437e-04  8.6734070716816243e-04  8.6746578788434185e-04  8.5544681860337448e-04  8.2988316800509910e-04  7.8956050684337534e-04  7.3351198627207470e-04  6.6107509865701106e-04  5.7194177665702240e-04  4.6619974736904300e-04  3.4436392890283625e-04  2.0739716721934981e-04  5.6720259618091767e-05  -1.0578844060009464e-04  -2.7780338259302288e-04  -4.5657163304560082e-04  -6.3894184272692586e-04  -8.2140245584725040e-04  -1.0001296687564376e-03  -1.1710462104958582e-03  -1.3298922087345841e-03  -1.4723097762846286e-03  -1.5939429129673461e-03  -1.6905538485218999e-03  -1.7581560591185775e-03  -1.7931631372386416e-03  -1.7925504584436658e-03  -1.7540247686356743e-03  -1.6761940293662952e-03  -1.5587271811798435e-03  -1.4024914903240852e-03  -1.2096530364426278e-03  -9.8372590974979608e-04  -7.2955635961651129e-04  -4.5323125523026852e-04  -1.6190526703281511e-04  1.3645230508197234e-04  4.3338218447479487e-04  7.2031414487203397e-04  9.8897604167864006e-04  1.2318030640697123e-03  1.4423152187440871e-03  1.6154323592562937e-03  1.7477011992918384e-03  1.8374169611768785e-03  1.8846325509231300e-03  1.8910589217666410e-03  1.8598701049083750e-03  1.7954339780041054e-03  1.7029943967163917e-03  1.5883317342213754e-03  1.4574274347558705e-03  1.3161545620529029e-03  1.1700114721005055e-03  1.0239103373596542e-03  8.8202684919707708e-04  7.4771250117337340e-04  6.2346645794999177e-04  5.1096034812363037e-04  4.1110645419719586e-04  3.2415785264565546e-04  2.4982828138729986e-04  1.8741979926304507e-04  1.3594771512449638e-04  9.4254451398287072e-05  6.1106564516051493e-05  3.5271753363575463e-05  1.5574917970328441e-05  9.3408661879516047e-07  -9.6216442747551331e-06  -1.6948871408780743e-05  -2.1796924774081822e-05  -2.4819572751551069e-05  -2.6584770825226821e-05  -2.7575294602775625e-05  -2.8173574530301846e-05  -2.8624591280387617e-05  -2.8974795347342610e-05  -2.8979282188833510e-05  -2.8005524826081096e-05  -2.4866903964029762e-05  -1.8052800083285108e-05  -6.1521138810044323e-06  1.3788999637596452e-06  -3.0625152844852617e-06  4.9259201360425548e-06  1.0278947623683401e-04  3.3443300266449398e-04  6.8897024708796262e-04  1.1400649432772583e-03  1.6550763175547378e-03  2.2006027491898493e-03  2.7452949446305137e-03  3.2620983637598627e-03  3.7298393400261457e-03  4.1341516078194822e-03  4.4676949808865286e-03  4.7297153371507177e-03  4.9250643033892892e-03  5.0628403548372584e-03  5.1548231902431687e-03  5.2138600566147778e-03  5.2523382315265866e-03  5.2808526117404499e-03  5.3071560586775606e-03  5.3354606363718903e-03  5.3661333238242065e-03  5.3957931919577182e-03  5.4177671232514425e-03  5.4228055358381579e-03  5.3999138859150810e-03  5.3371378063064231e-03  5.2221608003787312e-03  5.0426316345488220e-03  4.7862173446943058e-03  4.4404518192071142e-03  3.9924955815413988e-03  3.4289276856865614e-03  2.7356601350981354e-03  1.8980164950916836e-03  9.0097073289881506e-04  -2.7048535371320716e-04  -1.6308845588522320e-03  -3.1937680462718531e-03  -4.9711319915511426e-03  -6.9728530731315288e-03  -9.2061094875337309e-03  -1.1674818482675965e-02  -1.4379115787387875e-02  -1.7314904157024115e-02  -2.0473496988703217e-02  -2.3841378701606613e-02  -2.7400097056581293e-02  -3.1126294724432207e-02  -3.4991878925910234e-02  -3.8964319780647967e-02  -4.3007061120401285e-02  -4.7080022310513038e-02  -5.1140166886211397e-02  -5.5142113751678407e-02  -5.9038768305036911e-02  -6.2781954891846986e-02  -6.6323037258988388e-02  -6.9613519416043448e-02  -7.2605625299084639e-02  -7.5252860740400176e-02  -7.7510565879410617e-02  -7.9336468993057449e-02  -8.0691254103634480e-02  -8.1539154715891266e-02  -8.1848583563090202e-02  -8.1592804917255721e-02  -8.0750650343752547e-02  -7.9307271965038284e-02  -7.7254919151937537e-02  -7.4593715706192915e-02  -7.1332405126080314e-02  -6.7489022757011685e-02  -6.3091445799830018e-02  -5.8177766204478912e-02  -5.2796429486081271e-02  -4.7006083656956910e-02  -4.0875089216385288e-02  -3.4480653301000128e-02  -2.7907568487571324e-02  -2.1246559581874512e-02  -1.4592267678874548e-02  -8.0409287404595575e-03  -1.6878310439208911e-03  4.3753412472555464e-03  1.0063154173488305e-02  1.5298928094686488e-02  2.0016970769444815e-02  2.4164423756603069e-02  2.7702629354486096e-02  3.0607955146431134e-02  3.2872047002050528e-02  3.4501515059818966e-02  3.5517087733742202e-02  3.5952293531677101e-02  3.5851748275183656e-02  3.5269136734383796e-02  3.4264983503706117e-02  3.2904310396029333e-02  3.1254277946243823e-02  2.9381907160655737e-02  2.7351974076848033e-02  2.5225162254210395e-02  2.3056545822980338e-02  2.0894456558621724e-02  1.8779763631421809e-02  1.6745566210683859e-02  1.4817270000409260e-02  1.3012993185107003e-02  1.1344228235023519e-02  9.8166757605959512e-03  8.4311660827793740e-03  7.1845934076848689e-03  6.0708058445886580e-03  5.0814205487769940e-03  4.2065639541744937e-03  3.4355669383695281e-03  2.7576661127448306e-03  2.1627667604930362e-03  1.6423021296839136e-03  1.1901747354542591e-03  8.0367441808342616e-04  4.8415389117776355e-04  2.3694683667573274e-04  6.9869404479683218e-05  -1.2332902894815682e-05  -1.8291792552506759e-05  1.9061280966960566e-06  -1.2808217435059913e-05  6.1952060044223749e-05  3.1652409342487937e-04  7.7260992354702613e-04  1.4153689162829735e-03  2.2069172370567628e-03  3.0979649289305982e-03  4.0360794968095090e-03  4.9710861988624868e-03  5.8590195338676749e-03  6.6648469879731333e-03  7.3640525690672528e-03  7.9430964119323912e-03  8.3988455757021269e-03  8.7371444554767540e-03  8.9707493505595971e-03  9.1168747853337603e-03  9.1945958138461223e-03  9.2223304863203719e-03  9.2155995018115191e-03  9.1852299263373467e-03  9.1361336381631832e-03  9.0667412747178384e-03  8.9691030144773004e-03  8.8295806442384474e-03  8.6299658182006390e-03  8.3487917492657757e-03  7.9625850704685402e-03  7.4468454914122031e-03  6.7766364970880790e-03  5.9267931244503533e-03  4.8718634788071395e-03  3.5859643165354277e-03  2.0427323022719746e-03  2.1550099740041102e-04  -1.9222425983588987e-03  -4.3961374880520767e-03  -7.2300220997530383e-03  -1.0444873183242675e-02  -1.4057677442976823e-02  -1.8080295310655452e-02  -2.2518373100905310e-02  -2.7370361396251760e-02  -3.2626699379539874e-02  -3.8269222199694593e-02  -4.4270839150974503e-02  -5.0595514844098251e-02  -5.7198565243119552e-02  -6.4027258278448976e-02  -7.1021687676934592e-02  -7.8115870371903304e-02  -8.5239005476651170e-02  -9.2316826447818884e-02  -9.9272978522457228e-02  -1.0603036022845366e-01  -1.1251237871916132e-01  -1.1864408284905723e-01  -1.2435315303865881e-01  -1.2957074141726047e-01  -1.3423216853761702e-01  -1.3827749297610131e-01  -1.4165197700982707e-01  -1.4430647532156499e-01  -1.4619777495492281e-01  -1.4728891321081858e-01  -1.4754949669918241e-01  -1.4695603999060400e-01  -1.4549233628462518e-01  -1.4314986571505431e-01  -1.3992823935996279e-01  -1.3583566984006354e-01  -1.3088945093955590e-01  -1.2511642186993294e-01  -1.1855338405890530e-01  -1.1124743227603043e-01  -1.0325615715700057e-01  -9.4647672878551595e-02  -8.5500423756158406e-02  -7.5902726112584404e-02  -6.5952008564977738e-02  -5.5753724748844984e-02  -4.5419926955590210e-02  -3.5067507324468637e-02  -2.4816133898632228e-02  -1.4785929820621784e-02  -5.0949640498723922e-03  4.1433614236125633e-03  1.2822931049456275e-02  2.0847440284183390e-02  2.8132725394792529e-02  3.4608807270041377e-02  4.0221571784498561e-02  4.4934025997242083e-02  4.8727087114895234e-02  5.1599877155220013e-02  5.3569509489519211e-02  5.4670363884382019e-02  5.4952855372962454e-02  5.4481712462181496e-02  5.3333794300542213e-02  5.1595497302781769e-02  4.9359829927672544e-02  4.6723267330115711e-02  4.3782530514721411e-02  4.0631459324868453e-02  3.7358158201517021e-02  3.4042582021668384e-02  3.0754695435174201e-02  2.7553286956984790e-02  2.4485456346138711e-02  2.1586731226281519e-02  1.8881716485213342e-02  1.6385145622860895e-02  1.4103191435762306e-02  1.2034905125070602e-02  1.0173685372038261e-02  8.5087252969174160e-03  7.0264345546264609e-03  5.7118715919485192e-03  4.5502320424188952e-03  3.5284094763647542e-03  2.6365684566309524e-03  1.8695319450518862e-03  1.2276146007954051e-03  7.1617371410034718e-04  3.4307693630755058e-04  1.1169660596696492e-04  1.1573017001351142e-05  -3.4583408139847013e-06  -2.3263928280123648e-05  1.1813372280089409e-04  5.2978536272884496e-04  1.1942432913759418e-03  2.0810587700058501e-03  3.1415625794835229e-03  4.3157343666057908e-03  5.5395993638939290e-03  6.7516324558723664e-03  7.8975964251421053e-03  8.9339122580929225e-03  9.8295782941202978e-03  1.0566720828432130e-02  1.1139913732549611e-02  1.1554472508015468e-02  1.1823974557620688e-02  1.1967281907070186e-02  1.2005347277535315e-02  1.1958075981996788e-02  1.1841498889852132e-02  1.1665484543682835e-02  1.1432174880534508e-02  1.1135260029236248e-02  1.0760109124355013e-02  1.0284654507729396e-02  9.6808096491751029e-03  8.9161207974888541e-03  7.9553403664287294e-03  6.7616790181947448e-03  5.2976273547036545e-03  3.5253945065049225e-03  1.4071370120905041e-03  -1.0947931482590911e-03  -4.0173779812977019e-03  -7.3961211056845560e-03  -1.1263876158285262e-02  -1.5649380867434035e-02  -2.0575607181633586e-02  -2.6058051761359596e-02  -3.2103089185840164e-02  -3.8706505582437080e-02  -4.5852325510739193e-02  -5.3512035536438247e-02  -6.1644288678181010e-02  -7.0195142554222378e-02  -7.9098843929113066e-02  -8.8279127086857548e-02  -9.7650951149662227e-02  -1.0712256657807734e-01  -1.1659777776558052e-01  -1.2597826145082561e-01  -1.3516580663019409e-01  -1.4406436121747654e-01  -1.5258179922517762e-01  -1.6063135460598504e-01  -1.6813270035336381e-01  -1.7501268088091101e-01  -1.8120572873540247e-01  -1.8665401273405649e-01  -1.9130737387453020e-01  -1.9512310810750064e-01  -1.9806565374845100e-01  -2.0010623589114795e-01  -2.0122251321714635e-01  -2.0139826446727579e-01  -2.0062314361567044e-01  -1.9889252527112089e-01  -1.9620745369980458e-01  -1.9257470258536416e-01  -1.8800694516051550e-01  -1.8252302745000754e-01  -1.7614833115685874e-01  -1.6891520417815545e-01  -1.6086342931930708e-01  -1.5204069416933561e-01  -1.4250301762604375e-01  -1.3231508182132537e-01  -1.2155041500363352e-01  -1.1029136978001616e-01  -9.8628845252812042e-02  -8.6661710401685396e-02  -7.4495900420356087e-02  -6.2243177129669224e-02  -5.0019567424211556e-02  -3.7943517972649866e-02  -2.6133826604371121e-02  -1.4707428842699244e-02  -3.7771278714623401e-03  6.5506425843535410e-03  1.6177941997460022e-02  2.5017269406305224e-02  3.2993289701920427e-02  4.0044318797365669e-02  4.6123563481171956e-02  5.1200119752327550e-02  5.5259730125618710e-02  5.8305285295780190e-02  6.0357032044564121e-02  6.1452422858344596e-02  6.1645521848718084e-02  6.1005875339246139e-02  5.9616771697652171e-02  5.7572857688034482e-02  5.4977145433464297e-02  5.1937525845900438e-02  4.8562985279889295e-02  4.4959784276858226e-02  4.1227884430609991e-02  3.7457893108939030e-02  3.3728737529861871e-02  3.0106191025556006e-02  2.6642273456563358e-02  2.3375454582842008e-02  2.0331520789197796e-02  1.7524932102099218e-02  1.4960500474473391e-02  1.2635255515880449e-02  1.0540416030843096e-02  8.6634347273797201e-03  6.9901071354749591e-03  5.5067155473187950e-03  4.2021048971675121e-03  3.0694600967528644e-03  2.1073903592925582e-03  1.3197375757544037e-03  7.1346299959861535e-04  2.9396614470475561e-04  5.8694886914404329e-05  -1.2138351277948710e-05  -3.2058410476783359e-05  1.6367701823281246e-04  7.1059807545318613e-04  1.5572138208701026e-03  2.6512180621344156e-03  3.9295652317028577e-03  5.3214481836450422e-03  6.7537137815063620e-03  8.1569524693681280e-03  9.4704550201610161e-03  1.0645688004263808e-02  1.1648164160499908e-02  1.2457798280040204e-02  1.3067934104398150e-02  1.3483290808094781e-02  1.3717107102935552e-02  1.3787771946365476e-02  1.3715232884282169e-02  1.3517472659896590e-02  1.3207340640836044e-02  1.2790008854842539e-02  1.2261278523852887e-02  1.1606878658274989e-02  1.0802771074130583e-02  9.8163229411904508e-03  8.6080662820823394e-03  7.1336814124949239e-03  5.3458552411808314e-03  3.1957810187688627e-03  6.3424758924018323e-04  -2.3875522515243120e-03  -5.9172503979215765e-03  -1.0000315344003717e-02  -1.4678678889560849e-02  -1.9988942506097146e-02  -2.5960253103313485e-02  -3.2612018378390444e-02  -3.9951663905119075e-02  -4.7972634825100467e-02  -5.6652832593455771e-02  -6.5953656875548494e-02  -7.5819789179665184e-02  -8.6179802190539112e-02  -9.6947607892606327e-02  -1.0802467791919192e-01  -1.1930289270477569e-01  -1.3066781586028728e-01  -1.4200215386035861e-01  -1.5318915474011335e-01  -1.6411572234794558e-01  -1.7467506760685181e-01  -1.8476877919241155e-01  -1.9430826007159877e-01  -2.0321553688109134e-01  -2.1142349788055695e-01  -2.1887564909834145e-01  -2.2552549679154876e-01  -2.3133566915385861e-01  -2.3627688424878363e-01  -2.4032685836154394e-01  -2.4346923301600479e-01  -2.4569258072226904e-01  -2.4698953444424698e-01  -2.4735607110544383e-01  -2.4679096851193341e-01  -2.4529544640115000e-01  -2.4287299520938826e-01  -2.3952939224995634e-01  -2.3527289915169267e-01  -2.3011463202075366e-01  -2.2406909009406484e-01  -2.1715482333152644e-01  -2.0939521311123591e-01  -2.0081933154729023e-01  -1.9146283631315661e-01  -1.8136884745271953e-01  -1.7058874489696718e-01  -1.5918281674623747e-01  -1.4722068598078786e-01  -1.3478144396492991e-01  -1.2195342821575889e-01  -1.0883359845164886e-01  -9.5526489190559588e-02  -8.2142749248043975e-02  -6.8797313821017253e-02  -5.5607290705346389e-02  -4.2689672117625414e-02  -3.0159002914955720e-02  -1.8125139383065432e-02  -6.6912183135172431e-03  4.0480760755276781e-03  1.4007905371081823e-02  2.3114340348628314e-02  3.1305152805308253e-02  3.8530430183286252e-02  4.4753121149890891e-02  4.9949607820970958e-02  5.4110360296543737e-02  5.7240666277217626e-02  5.9361353206447899e-02  6.0509347219679224e-02  6.0737859628676220e-02  6.0115974538820900e-02  5.8727442075742070e-02  5.6668563149197382e-02  5.4045173934037273e-02  5.0968879065662075e-02  4.7552812417179173e-02  4.3907293136694246e-02  4.0135771490679456e-02  3.6331417976967949e-02  3.2574611584796118e-02  2.8931453440143112e-02  2.5453300330238859e-02  2.2177206369921831e-02  1.9127098052951989e-02  1.6315493053598657e-02  1.3745597047546965e-02  1.1413654874261872e-02  9.3114658646015376e-03  7.4289739976997338e-03  5.7567991897732578e-03  4.2884927053949418e-03  3.0222059720310399e-03  1.9614198552242797e-03  1.1144628380003589e-03  4.9297274166866653e-04  1.0961397003743725e-04  -2.1751262594818203e-05  -3.9128929749370797e-05  1.9951364241642744e-04  8.5811716386293389e-04  1.8590301454279000e-03  3.1274425677697408e-03  4.5831113476916922e-03  6.1424869124872853e-03  7.7229265526517973e-03  9.2481744869990067e-03  1.0652973383536031e-02  1.1886198929694227e-02  1.2912275053369249e-02  1.3710977636096466e-02  1.4275875766120039e-02  1.4611722691900921e-02  1.4731113258992947e-02  1.4650710158689073e-02  1.4387330046318083e-02  1.3954182302645073e-02  1.3357561447594774e-02  1.2594289320212915e-02  1.1650159000409201e-02  1.0499529124387752e-02  9.1060553018194462e-03  7.4243559596197453e-03  5.4022514859684151e-03  2.9831523625089016e-03  1.0824157569720418e-04  -3.2817172206033298e-03  -7.2448830221409702e-03  -1.1836910069123664e-02  -1.7109294365855041e-02  -2.3107285406380431e-02  -2.9867330050958946e-02  -3.7414197969809125e-02  -4.5758062077870587e-02  -5.4891853327873961e-02  -6.4789196256104201e-02  -7.5403189375288060e-02  -8.6666234371343936e-02  -9.8491038312767606e-02  -1.1077280728541510e-01  -1.2339252520145778e-01  -1.3622108809215730e-01  -1.4912396443548923e-01  -1.6196599705417938e-01  -1.7461595909780284e-01  -1.8695052594727210e-01  -1.9885741314276933e-01  -2.1023754045674675e-01  -2.2100619533628266e-01  -2.3109326587105497e-01  -2.4044268601960159e-01  -2.4901127680284685e-01  -2.5676718019750511e-01  -2.6368807204673855e-01  -2.6975931402417996e-01  -2.7497217074134545e-01  -2.7932218247085000e-01  -2.8280775106609268e-01  -2.8542896872405382e-01  -2.8718669992611945e-01  -2.8808191133865713e-01  -2.8811523702844599e-01  -2.8728676227038646e-01  -2.8559600854750361e-01  -2.8304210434409466e-01  -2.7962412784991775e-01  -2.7534161136483226e-01  -2.7019519729970570e-01  -2.6418743720792037e-01  -2.5732372220215782e-01  -2.4961332926403190e-01  -2.4107056075556696e-01  -2.3171594390837408e-01  -2.2157744570895696e-01  -2.1069164344256780e-01  -1.9910477797242551e-01  -1.8687360358168714e-01  -1.7406594134801026e-01  -1.6076084174497682e-01  -1.4704827277448745e-01  -1.3302827258408906e-01  -1.1880954107513358e-01  -1.0450749279734101e-01  -9.0241848707104222e-02  -7.6133899974788088e-02  -6.2303624410584499e-02  -4.8866865730819956e-02  -3.5932789297249974e-02  -2.3601800252729618e-02  -1.1964052283628504e-02  -1.0985938372249870e-03  8.9268959783923452e-03  1.8055918814898080e-02  2.6242723085498430e-02  3.3451866804820762e-02  3.9658010187917585e-02  4.4846114765658633e-02  4.9012128013341399e-02  5.2164106773386856e-02  5.4323599920671414e-02  5.5526996403808260e-02  5.5826475812727989e-02  5.5290196352537450e-02  5.4001429825506202e-02  5.2056498300936636e-02  4.9561557203277533e-02  4.6628465367997134e-02  4.3370140194465320e-02  3.9895880017343371e-02  3.6307129667993175e-02  3.2694076202658517e-02  2.9133317606580954e-02  2.5686686256252911e-02  2.2401168312869615e-02  1.9309765765510960e-02  1.6433107726474810e-02  1.3781621287901280e-02  1.1358095970186031e-02  9.1604927395595170e-03  7.1848401613109417e-03  5.4280352384171674e-03  3.8903368834927615e-03  2.5774267449503877e-03  1.5019315488819772e-03  6.8515728165801173e-04  1.5833507255269986e-04  -3.1034793483075166e-05  -4.4941873751884066e-05  2.2875067722180801e-04  9.8066524713370665e-04  2.1120913716086219e-03  3.5265600532560790e-03  5.1251243610724497e-03  6.8095933468781183e-03  8.4867528929542906e-03  1.0073540952126852e-02  1.1501182483221096e-02  1.2717659684008568e-02  1.3688288563353333e-02  1.4394589557120044e-02  1.4831808180788003e-02  1.5005489574617208e-02  1.4927479063486427e-02  1.4611671006115162e-02  1.4069796956790392e-02  1.3307544627244483e-02  1.2321317508561275e-02  1.1095947119673438e-02  9.6036155803574455e-03  7.8041099387233751e-03  5.6463216924411913e-03  3.0706808293597242e-03  1.2060264672530074e-05  -3.5973183715114904e-03  -7.8252823576183943e-03  -1.2737442132992887e-02  -1.8395040984748371e-02  -2.4852585139706090e-02  -3.2154999419209927e-02  -4.0334282319898010e-02  -4.9405897213845182e-02  -5.9365322757325471e-02  -7.0185245623183276e-02  -8.1813830385911099e-02  -9.4174392183608291e-02  -1.0716665961922661e-01  -1.2066965769835589e-01  -1.3454606287164286e-01  -1.48