<?xml version="1.0"?>
<VTKFile type="UnstructuredGrid"  version="0.1"  >
<UnstructuredGrid>
<Piece  NumberOfPoints="1089" NumberOfCells="1024">
<Points>
<DataArray  type="Float64"  NumberOfComponents="3"  format="ascii">0 0 0  0.03125 0 0  0.0625 0 0  0.09375 0 0  0.125 0 0  0.15625 0 0  0.1875 0 0  0.21875 0 0  0.25 0 0  0.28125 0 0  0.3125 0 0  0.34375 0 0  0.375 0 0  0.40625 0 0  0.4375 0 0  0.46875 0 0  0.5 0 0  0.53125 0 0  0.5625 0 0  0.59375 0 0  0.625 0 0  0.65625 0 0  0.6875 0 0  0.71875 0 0  0.75 0 0  0.78125 0 0  0.8125 0 0  0.84375 0 0  0.875 0 0  0.90625 0 0  0.9375 0 0  0.96875 0 0  1 0 0  0 0.03125 0  0.03125 0.03125 0  0.0625 0.03125 0  0.09375 0.03125 0  0.125 0.03125 0  0.15625 0.03125 0  0.1875 0.03125 0  0.21875 0.03125 0  0.25 0.03125 0  0.28125 0.03125 0  0.3125 0.03125 0  0.34375 0.03125 0  0.375 0.03125 0  0.40625 0.03125 0  0.4375 0.03125 0  0.46875 0.03125 0  0.5 0.03125 0  0.53125 0.03125 0  0.5625 0.03125 0  0.59375 0.03125 0  0.625 0.03125 0  0.65625 0.03125 0  0.6875 0.03125 0  0.71875 0.03125 0  0.75 0.03125 0  0.78125 0.03125 0  0.8125 0.03125 0  0.84375 0.03125 0  0.875 0.03125 0  0.90625 0.03125 0  0.9375 0.03125 0  0.96875 0.03125 0  1 0.03125 0  0 0.0625 0  0.03125 0.0625 0  0.0625 0.0625 0  0.09375 0.0625 0  0.125 0.0625 0  0.15625 0.0625 0  0.1875 0.0625 0  0.21875 0.0625 0  0.25 0.0625 0  0.28125 0.0625 0  0.3125 0.0625 0  0.34375 0.0625 0  0.375 0.0625 0  0.40625 0.0625 0  0.4375 0.0625 0  0.46875 0.0625 0  0.5 0.0625 0  0.53125 0.0625 0  0.5625 0.0625 0  0.59375 0.0625 0  0.625 0.0625 0  0.65625 0.0625 0  0.6875 0.0625 0  0.71875 0.0625 0  0.75 0.0625 0  0.78125 0.0625 0  0.8125 0.0625 0  0.84375 0.0625 0  0.875 0.0625 0  0.90625 0.0625 0  0.9375 0.0625 0  0.96875 0.0625 0  1 0.0625 0  0 0.09375 0  0.03125 0.09375 0  0.0625 0.09375 0  0.09375 0.09375 0  0.125 0.09375 0  0.15625 0.09375 0  0.1875 0.09375 0  0.21875 0.09375 0  0.25 0.09375 0  0.28125 0.09375 0  0.3125 0.09375 0  0.34375 0.09375 0  0.375 0.09375 0  0.40625 0.09375 0  0.4375 0.09375 0  0.46875 0.09375 0  0.5 0.09375 0  0.53125 0.09375 0  0.5625 0.09375 0  0.59375 0.09375 0  0.625 0.09375 0  0.65625 0.09375 0  0.6875 0.09375 0  0.71875 0.09375 0  0.75 0.09375 0  0.78125 0.09375 0  0.8125 0.09375 0  0.84375 0.09375 0  0.875 0.09375 0  0.90625 0.09375 0  0.9375 0.09375 0  0.96875 0.09375 0  1 0.09375 0  0 0.125 0  0.03125 0.125 0  0.0625 0.125 0  0.09375 0.125 0  0.125 0.125 0  0.15625 0.125 0  0.1875 0.125 0  0.21875 0.125 0  0.25 0.125 0  0.28125 0.125 0  0.3125 0.125 0  0.34375 0.125 0  0.375 0.125 0  0.40625 0.125 0  0.4375 0.125 0  0.46875 0.125 0  0.5 0.125 0  0.53125 0.125 0  0.5625 0.125 0  0.59375 0.125 0  0.625 0.125 0  0.65625 0.125 0  0.6875 0.125 0  0.71875 0.125 0  0.75 0.125 0  0.78125 0.125 0  0.8125 0.125 0  0.84375 0.125 0  0.875 0.125 0  0.90625 0.125 0  0.9375 0.125 0  0.96875 0.125 0  1 0.125 0  0 0.15625 0  0.03125 0.15625 0  0.0625 0.15625 0  0.09375 0.15625 0  0.125 0.15625 0  0.15625 0.15625 0  0.1875 0.15625 0  0.21875 0.15625 0  0.25 0.15625 0  0.28125 0.15625 0  0.3125 0.15625 0  0.34375 0.15625 0  0.375 0.15625 0  0.40625 0.15625 0  0.4375 0.15625 0  0.46875 0.15625 0  0.5 0.15625 0  0.53125 0.15625 0  0.5625 0.15625 0  0.59375 0.15625 0  0.625 0.15625 0  0.65625 0.15625 0  0.6875 0.15625 0  0.71875 0.15625 0  0.75 0.15625 0  0.78125 0.15625 0  0.8125 0.15625 0  0.84375 0.15625 0  0.875 0.15625 0  0.90625 0.15625 0  0.9375 0.15625 0  0.96875 0.15625 0  1 0.15625 0  0 0.1875 0  0.03125 0.1875 0  0.0625 0.1875 0  0.09375 0.1875 0  0.125 0.1875 0  0.15625 0.1875 0  0.1875 0.1875 0  0.21875 0.1875 0  0.25 0.1875 0  0.28125 0.1875 0  0.3125 0.1875 0  0.34375 0.1875 0  0.375 0.1875 0  0.40625 0.1875 0  0.4375 0.1875 0  0.46875 0.1875 0  0.5 0.1875 0  0.53125 0.1875 0  0.5625 0.1875 0  0.59375 0.1875 0  0.625 0.1875 0  0.65625 0.1875 0  0.6875 0.1875 0  0.71875 0.1875 0  0.75 0.1875 0  0.78125 0.1875 0  0.8125 0.1875 0  0.84375 0.1875 0  0.875 0.1875 0  0.90625 0.1875 0  0.9375 0.1875 0  0.96875 0.1875 0  1 0.1875 0  0 0.21875 0  0.03125 0.21875 0  0.0625 0.21875 0  0.09375 0.21875 0  0.125 0.21875 0  0.15625 0.21875 0  0.1875 0.21875 0  0.21875 0.21875 0  0.25 0.21875 0  0.28125 0.21875 0  0.3125 0.21875 0  0.34375 0.21875 0  0.375 0.21875 0  0.40625 0.21875 0  0.4375 0.21875 0  0.46875 0.21875 0  0.5 0.21875 0  0.53125 0.21875 0  0.5625 0.21875 0  0.59375 0.21875 0  0.625 0.21875 0  0.65625 0.21875 0  0.6875 0.21875 0  0.71875 0.21875 0  0.75 0.21875 0  0.78125 0.21875 0  0.8125 0.21875 0  0.84375 0.21875 0  0.875 0.21875 0  0.90625 0.21875 0  0.9375 0.21875 0  0.96875 0.21875 0  1 0.21875 0  0 0.25 0  0.03125 0.25 0  0.0625 0.25 0  0.09375 0.25 0  0.125 0.25 0  0.15625 0.25 0  0.1875 0.25 0  0.21875 0.25 0  0.25 0.25 0  0.28125 0.25 0  0.3125 0.25 0  0.34375 0.25 0  0.375 0.25 0  0.40625 0.25 0  0.4375 0.25 0  0.46875 0.25 0  0.5 0.25 0  0.53125 0.25 0  0.5625 0.25 0  0.59375 0.25 0  0.625 0.25 0  0.65625 0.25 0  0.6875 0.25 0  0.71875 0.25 0  0.75 0.25 0  0.78125 0.25 0  0.8125 0.25 0  0.84375 0.25 0  0.875 0.25 0  0.90625 0.25 0  0.9375 0.25 0  0.96875 0.25 0  1 0.25 0  0 0.28125 0  0.03125 0.28125 0  0.0625 0.28125 0  0.09375 0.28125 0  0.125 0.28125 0  0.15625 0.28125 0  0.1875 0.28125 0  0.21875 0.28125 0  0.25 0.28125 0  0.28125 0.28125 0  0.3125 0.28125 0  0.34375 0.28125 0  0.375 0.28125 0  0.40625 0.28125 0  0.4375 0.28125 0  0.46875 0.28125 0  0.5 0.28125 0  0.53125 0.28125 0  0.5625 0.28125 0  0.59375 0.28125 0  0.625 0.28125 0  0.65625 0.28125 0  0.6875 0.28125 0  0.71875 0.28125 0  0.75 0.28125 0  0.78125 0.28125 0  0.8125 0.28125 0  0.84375 0.28125 0  0.875 0.28125 0  0.90625 0.28125 0  0.9375 0.28125 0  0.96875 0.28125 0  1 0.28125 0  0 0.3125 0  0.03125 0.3125 0  0.0625 0.3125 0  0.09375 0.3125 0  0.125 0.3125 0  0.15625 0.3125 0  0.1875 0.3125 0  0.21875 0.3125 0  0.25 0.3125 0  0.28125 0.3125 0  0.3125 0.3125 0  0.34375 0.3125 0  0.375 0.3125 0  0.40625 0.3125 0  0.4375 0.3125 0  0.46875 0.3125 0  0.5 0.3125 0  0.53125 0.3125 0  0.5625 0.3125 0  0.59375 0.3125 0  0.625 0.3125 0  0.65625 0.3125 0  0.6875 0.3125 0  0.71875 0.3125 0  0.75 0.3125 0  0.78125 0.3125 0  0.8125 0.3125 0  0.84375 0.3125 0  0.875 0.3125 0  0.90625 0.3125 0  0.9375 0.3125 0  0.96875 0.3125 0  1 0.3125 0  0 0.34375 0  0.03125 0.34375 0  0.0625 0.34375 0  0.09375 0.34375 0  0.125 0.34375 0  0.15625 0.34375 0  0.1875 0.34375 0  0.21875 0.34375 0  0.25 0.34375 0  0.28125 0.34375 0  0.3125 0.34375 0  0.34375 0.34375 0  0.375 0.34375 0  0.40625 0.34375 0  0.4375 0.34375 0  0.46875 0.34375 0  0.5 0.34375 0  0.53125 0.34375 0  0.5625 0.34375 0  0.59375 0.34375 0  0.625 0.34375 0  0.65625 0.34375 0  0.6875 0.34375 0  0.71875 0.34375 0  0.75 0.34375 0  0.78125 0.34375 0  0.8125 0.34375 0  0.84375 0.34375 0  0.875 0.34375 0  0.90625 0.34375 0  0.9375 0.34375 0  0.96875 0.34375 0  1 0.34375 0  0 0.375 0  0.03125 0.375 0  0.0625 0.375 0  0.09375 0.375 0  0.125 0.375 0  0.15625 0.375 0  0.1875 0.375 0  0.21875 0.375 0  0.25 0.375 0  0.28125 0.375 0  0.3125 0.375 0  0.34375 0.375 0  0.375 0.375 0  0.40625 0.375 0  0.4375 0.375 0  0.46875 0.375 0  0.5 0.375 0  0.53125 0.375 0  0.5625 0.375 0  0.59375 0.375 0  0.625 0.375 0  0.65625 0.375 0  0.6875 0.375 0  0.71875 0.375 0  0.75 0.375 0  0.78125 0.375 0  0.8125 0.375 0  0.84375 0.375 0  0.875 0.375 0  0.90625 0.375 0  0.9375 0.375 0  0.96875 0.375 0  1 0.375 0  0 0.40625 0  0.03125 0.40625 0  0.0625 0.40625 0  0.09375 0.40625 0  0.125 0.40625 0  0.15625 0.40625 0  0.1875 0.40625 0  0.21875 0.40625 0  0.25 0.40625 0  0.28125 0.40625 0  0.3125 0.40625 0  0.34375 0.40625 0  0.375 0.40625 0  0.40625 0.40625 0  0.4375 0.40625 0  0.46875 0.40625 0  0.5 0.40625 0  0.53125 0.40625 0  0.5625 0.40625 0  0.59375 0.40625 0  0.625 0.40625 0  0.65625 0.40625 0  0.6875 0.40625 0  0.71875 0.40625 0  0.75 0.40625 0  0.78125 0.40625 0  0.8125 0.40625 0  0.84375 0.40625 0  0.875 0.40625 0  0.90625 0.40625 0  0.9375 0.40625 0  0.96875 0.40625 0  1 0.40625 0  0 0.4375 0  0.03125 0.4375 0  0.0625 0.4375 0  0.09375 0.4375 0  0.125 0.4375 0  0.15625 0.4375 0  0.1875 0.4375 0  0.21875 0.4375 0  0.25 0.4375 0  0.28125 0.4375 0  0.3125 0.4375 0  0.34375 0.4375 0  0.375 0.4375 0  0.40625 0.4375 0  0.4375 0.4375 0  0.46875 0.4375 0  0.5 0.4375 0  0.53125 0.4375 0  0.5625 0.4375 0  0.59375 0.4375 0  0.625 0.4375 0  0.65625 0.4375 0  0.6875 0.4375 0  0.71875 0.4375 0  0.75 0.4375 0  0.78125 0.4375 0  0.8125 0.4375 0  0.84375 0.4375 0  0.875 0.4375 0  0.90625 0.4375 0  0.9375 0.4375 0  0.96875 0.4375 0  1 0.4375 0  0 0.46875 0  0.03125 0.46875 0  0.0625 0.46875 0  0.09375 0.46875 0  0.125 0.46875 0  0.15625 0.46875 0  0.1875 0.46875 0  0.21875 0.46875 0  0.25 0.46875 0  0.28125 0.46875 0  0.3125 0.46875 0  0.34375 0.46875 0  0.375 0.46875 0  0.40625 0.46875 0  0.4375 0.46875 0  0.46875 0.46875 0  0.5 0.46875 0  0.53125 0.46875 0  0.5625 0.46875 0  0.59375 0.46875 0  0.625 0.46875 0  0.65625 0.46875 0  0.6875 0.46875 0  0.71875 0.46875 0  0.75 0.46875 0  0.78125 0.46875 0  0.8125 0.46875 0  0.84375 0.46875 0  0.875 0.46875 0  0.90625 0.46875 0  0.9375 0.46875 0  0.96875 0.46875 0  1 0.46875 0  0 0.5 0  0.03125 0.5 0  0.0625 0.5 0  0.09375 0.5 0  0.125 0.5 0  0.15625 0.5 0  0.1875 0.5 0  0.21875 0.5 0  0.25 0.5 0  0.28125 0.5 0  0.3125 0.5 0  0.34375 0.5 0  0.375 0.5 0  0.40625 0.5 0  0.4375 0.5 0  0.46875 0.5 0  0.5 0.5 0  0.53125 0.5 0  0.5625 0.5 0  0.59375 0.5 0  0.625 0.5 0  0.65625 0.5 0  0.6875 0.5 0  0.71875 0.5 0  0.75 0.5 0  0.78125 0.5 0  0.8125 0.5 0  0.84375 0.5 0  0.875 0.5 0  0.90625 0.5 0  0.9375 0.5 0  0.96875 0.5 0  1 0.5 0  0 0.53125 0  0.03125 0.53125 0  0.0625 0.53125 0  0.09375 0.53125 0  0.125 0.53125 0  0.15625 0.53125 0  0.1875 0.53125 0  0.21875 0.53125 0  0.25 0.53125 0  0.28125 0.53125 0  0.3125 0.53125 0  0.34375 0.53125 0  0.375 0.53125 0  0.40625 0.53125 0  0.4375 0.53125 0  0.46875 0.53125 0  0.5 0.53125 0  0.53125 0.53125 0  0.5625 0.53125 0  0.59375 0.53125 0  0.625 0.53125 0  0.65625 0.53125 0  0.6875 0.53125 0  0.71875 0.53125 0  0.75 0.53125 0  0.78125 0.531
[...]
<PointData  Scalars="u_sol"> 
<DataArray  type="Float64"  Name="u_sol"  format="ascii">1.2705494208814508e-20  -2.7105054312137617e-20  1.0164395367051606e-19  5.3455229258327926e-20  -1.3363807314581978e-20  5.2854855908668351e-19  -5.6581800876587263e-19  -7.7248951329816703e-20  -6.3120906565884863e-19  5.4210108624275231e-19  -3.5236570605778904e-19  1.0409505526163317e-18  -1.5612802451366886e-18  2.7105054312137617e-20  8.6058547441036934e-19  -2.1684083914409655e-18  -1.1926213781165653e-18  9.7578195523695380e-19  -2.4394548880923831e-19  1.3521292816138807e-18  -2.0727557963802776e-18  9.4867690092481657e-19  6.3019251275719984e-19  4.3279549544254597e-19  -9.7556061184903967e-19  -2.3039296165316984e-19  -1.2434443665693137e-18  8.7595276175478645e-19  -6.5266905943289810e-19  3.6422416731934945e-20  1.7999450129153909e-20  5.2250777931584782e-20  -3.3881317890172002e-20  -8.9798381614727577e-06  4.4350423780865414e-05  1.9839764550570488e-04  4.4159450192964673e-04  7.6217308194496643e-04  1.1476492666789653e-03  1.5851237249548463e-03  2.0613224750144609e-03  2.5627054538977212e-03  3.0755680340621280e-03  3.5861609794550658e-03  4.0808250420128617e-03  4.5461434877394581e-03  4.9691137347626958e-03  5.3373398535840801e-03  5.6392476208204983e-03  5.8643239708162289e-03  6.0033828122345720e-03  6.0488593279566395e-03  5.9951350389889054e-03  5.8388960943153807e-03  5.5795274393091914e-03  5.2195457557227438e-03  4.7650742148135534e-03  4.2263626612625230e-03  3.6183558644159917e-03  2.9613171702320444e-03  2.2814977164714347e-03  1.6119035046217799e-03  9.9297100947088571e-04  4.7382797591395828e-04  1.1144365417533063e-04  -2.3063839800039171e-05  -1.6265147702110766e-05  8.0300143682364658e-05  3.5892371616317307e-04  7.9841215090493305e-04  1.3775569765547189e-03  2.0738403094828729e-03  2.8639952425818325e-03  3.7240649291562823e-03  4.6296048865273297e-03  5.5558681588100071e-03  6.4780242238167297e-03  7.3714034237386929e-03  8.2117734438577755e-03  8.9756500176512988e-03  9.6406451478215430e-03  1.0185855952917825e-02  1.0592297508334078e-02  1.0843383248679608e-02  1.0925456753711319e-02  1.0828379011025910e-02  1.0546175549180553e-02  1.0077748136375938e-02  9.4276561106237423e-03  8.6069725448722195e-03  7.6342213834437490e-03  6.5363993030514503e-03  5.3500950760827807e-03  4.1226832754910625e-03  2.9136951260581166e-03  1.7959771791027667e-03  8.5802816122901217e-04  2.0214521996064557e-04  -4.1867454429782830e-05  -2.1928579651005740e-05  1.0824417410181288e-04  4.8367424525278511e-04  1.0756106020472823e-03  1.8554637704046434e-03  2.7929304070629054e-03  3.8567099484090243e-03  5.0145695871489249e-03  6.2336146729946480e-03  7.4805386064541197e-03  8.7219189163345087e-03  9.9245475862093403e-03  1.1055804302853420e-02  1.2084075558840633e-02  1.2979224085820402e-02  1.3713112844515875e-02  1.4260188131293875e-02  1.4598126608410077e-02  1.4708551386267872e-02  1.4577822623952805e-02  1.4197908481363474e-02  1.3567342609809224e-02  1.2692274791052401e-02  1.1587621412786839e-02  1.0278323550129736e-02  8.8007170777788871e-03  7.2040309888617418e-03  5.5519827112651150e-03  3.9246076311506770e-03  2.4198155155520321e-03  1.1565567672377789e-03  2.7259476640520853e-04  -5.6469374483300216e-05  -2.6076630133514614e-05  1.2871168287390466e-04  5.7505066492366064e-04  1.2786381986130988e-03  2.2054479843342210e-03  3.3194618885690743e-03  4.5834978954809417e-03  5.9592706597571942e-03  7.4077073907623482e-03  8.8892430688190596e-03  1.0364172400653241e-02  1.1793042981013128e-02  1.3137099566822723e-02  1.4358782768360974e-02  1.5422287432747749e-02  1.6294185730641106e-02  1.6944120360871374e-02  1.7345573571627616e-02  1.7476718060432453e-02  1.7321356191037151e-02  1.6869954366793991e-02  1.6120779775279134e-02  1.5081147168609321e-02  1.3768783373219896e-02  1.2213318481960622e-02  1.0457908717169178e-02  8.5610104642103047e-03  6.5982693011289728e-03  4.6646936872718169e-03  2.8765186856129291e-03  1.3750469238453277e-03  3.2413323417382898e-04  -6.7149413498225789e-05  -2.8823543721498816e-05  1.4226614318039757e-04  6.3556805985209896e-04  1.4130999074789062e-03  2.4372188806588238e-03  3.6681106109998176e-03  5.0646942099538701e-03  6.5846783238964462e-03  8.1849040299761620e-03  9.8216681956648615e-03  1.1451111417944974e-02  1.3029652391161320e-02  1.4514479115914830e-02  1.5864100335488383e-02  1.7038962903346049e-02  1.8002140558098120e-02  1.8720100052906277e-02  1.9163550902857117e-02  1.9308385406107721e-02  1.9136715992673758e-02  1.8638017375513842e-02  1.7810381369715793e-02  1.6661892726468723e-02  1.5212134375567895e-02  1.3493831942993136e-02  1.1554643329783221e-02  9.4591157494042233e-03  7.2907729036130802e-03  5.1545241300972617e-03  3.1787499690866319e-03  1.5195918798737811e-03  3.5821540926590990e-04  -7.4210781271157085e-05  -3.0285832741087362e-05  1.4948176741166650e-04  6.6778411137385441e-04  1.4846742791832829e-03  2.5605733023172797e-03  3.8536374252315700e-03  5.3207066669535320e-03  6.9173581912198136e-03  8.5982619940297746e-03  1.0317517748202078e-02  1.2029060929587814e-02  1.3687118597576639e-02  1.5246725364990058e-02  1.6664302849478112e-02  1.7898308444212228e-02  1.8909959069909475e-02  1.9664036097036965e-02  2.0129777971561888e-02  2.0281867489873481e-02  2.0101521080747645e-02  1.9577687887702592e-02  1.8708366856848596e-02  1.7502050563160447e-02  1.5979304625918744e-02  1.4174493277196602e-02  1.2137657687298690e-02  9.9365717429914045e-03  7.6589381025396561e-03  5.4149291825967795e-03  3.3393967632352694e-03  1.5963969916681052e-03  3.7631778640018584e-04  -7.7960653214359928e-05  -3.0580615262359969e-05  1.5093595746902043e-04  6.7427214272602811e-04  1.4990721722537715e-03  2.5853526016595208e-03  3.8908516248772314e-03  5.3719877482832235e-03  6.9839116010384662e-03  8.6808623234236621e-03  1.0416505460201798e-02  1.2144341596145011e-02  1.3818165787762531e-02  1.5392588201121472e-02  1.6823619086193113e-02  1.8069323841187125e-02  1.9090553787791831e-02  1.9851758838886246e-02  2.0321888603954442e-02  2.0475388901141291e-02  2.0293301065610503e-02  1.9764471891305303e-02  1.8886882479058880e-02  1.7669104842611812e-02  1.6131895336033156e-02  1.4309935859047728e-02  1.2253730074790588e-02  1.0031680459160395e-02  7.7323098954774697e-03  5.4668349339015024e-03  3.3714066847211621e-03  1.6116822469354182e-03  3.7991400767982154e-04  -7.8704990158868333e-05  -2.9825099760105240e-05  1.4720677412768417e-04  6.5761027766662926e-04  1.4620169546401172e-03  2.5214181463552462e-03  3.7945867074234431e-03  5.2390138762958153e-03  6.8109595357178357e-03  8.4657984201402438e-03  1.0158348208221068e-02  1.1843266918708789e-02  1.3475500243422436e-02  1.5010788897519858e-02  1.6406238929472312e-02  1.7620960499182658e-02  1.8616780524431390e-02  1.9359035162310034e-02  1.9817448461798465e-02  1.9967103948155231e-02  1.9789516321463911e-02  1.9273810904911259e-02  1.8418018933074418e-02  1.7230497386684973e-02  1.5731482371538662e-02  1.3954787008340271e-02  1.1949651316051914e-02  9.7827697831314956e-03  7.5404616046934126e-03  5.3311849621236976e-03  3.2877262938370909e-03  1.5716547078324277e-03  3.7047113857996341e-04  -7.6748062220851428e-05  -2.8136412429392704e-05  1.3887203171346333e-04  6.2037701137237849e-04  1.3792351620795379e-03  2.3786381256894564e-03  3.5796856868927081e-03  4.9422714863958887e-03  6.4251309408902323e-03  7.9861673220550256e-03  9.5827604449127187e-03  1.1172140768589536e-02  1.2711810796688655e-02  1.4160023300645508e-02  1.5476319097656161e-02  1.6622129517275840e-02  1.7561448591938495e-02  1.8261580550996439e-02  1.8693968557854206e-02  1.8835111042052769e-02  1.8667572390000924e-02  1.8181095205510134e-02  1.7373821810455162e-02  1.6253633281891271e-02  1.4839614657782402e-02  1.3163656867704978e-02  1.1272202702693834e-02  9.2281612444259659e-03  7.1129576242736931e-03  5.0289071599077849e-03  3.1012811269423672e-03  1.4825032027108434e-03  3.4944993363926773e-04  -7.2392649503089205e-05  -2.5631548291430889e-05  1.2650900592441075e-04  5.6514946624608041e-04  1.2564522476233360e-03  2.1668808061786108e-03  3.2609927977278641e-03  4.5022484744727228e-03  5.8530550550612275e-03  7.2750636917544749e-03  8.7294502697582241e-03  1.0177255707736350e-02  1.1579769408636647e-02  1.2898964583846054e-02  1.4097987933930307e-02  1.5141708332235267e-02  1.5997329061220499e-02  1.6635068650196878e-02  1.7028915698517652e-02  1.7157463454046694e-02  1.7004830305236442e-02  1.6561672770994885e-02  1.5826298015712875e-02  1.4805883519070778e-02  1.3517811871373735e-02  1.1991130441605369e-02  1.0268142694584256e-02  8.4061533968745432e-03  6.4793372745698833e-03  4.5809025317754444e-03  2.8249717764982042e-03  1.3503996013559116e-03  3.1830604885193771e-04  -6.5940378383701036e-05  -2.2427367849613163e-05  1.1069438139947196e-04  4.9450282930357022e-04  1.0993908438119804e-03  1.8960113746365518e-03  2.8533492137189282e-03  3.9394294426196158e-03  5.1213569140282009e-03  6.3655761986479119e-03  7.6381171199790647e-03  8.9048922359498874e-03  1.0132032074384390e-02  1.1286265804694686e-02  1.2335349530507038e-02  1.3248546257652110e-02  1.3997161498514194e-02  1.4555138909253904e-02  1.4899720654013043e-02  1.5012177535385911e-02  1.4878614281077049e-02  1.4490855763252562e-02  1.3847420332233129e-02  1.2954586992508434e-02  1.1827563463432226e-02  1.0491763719827898e-02  8.9842009702830704e-03  7.3550154523420608e-03  5.6691101579976182e-03  4.0080438949659167e-03  2.4716758172161346e-03  1.1815017607377765e-03  2.7849122934446206e-04  -5.7692012186150786e-05  -1.8640610973891354e-05  9.2004295969299655e-05  4.1101032120530569e-04  9.1377028003395983e-04  1.5758907577947607e-03  2.3715912019799060e-03  3.2742934748724523e-03  4.2566551667330048e-03  5.2907857980300163e-03  6.3484508592365459e-03  7.4013189272567233e-03  8.4212401369603285e-03  9.3805624317632938e-03  1.0252487424243029e-02  1.1011469235413726e-02  1.1633659595709488e-02  1.2097402850496670e-02  1.2383784762032474e-02  1.2477239291556958e-02  1.2366217844218916e-02  1.2043925790027514e-02  1.1509131420731504e-02  1.0767052966812128e-02  9.8303295649141004e-03  8.7200833460606281e-03  7.4670775872872665e-03  6.1129869487979724e-03  4.7117572619157187e-03  3.3311786940785405e-03  2.0542515317664646e-03  9.8195653756036447e-04  2.3145429304519932e-04  -4.7947679260443703e-05  -1.4387916679348595e-05  7.1014422046800985e-05  3.1724340386063969e-04  7.0530672761871121e-04  1.2163755221924000e-03  1.8305497208869087e-03  2.5273135336146271e-03  3.2855614843063236e-03  4.0837654115301577e-03  4.9001319723365648e-03  5.7127933283416359e-03  6.5000220098553269e-03  7.2404749408659669e-03  7.9134680500147232e-03  8.4992840697221128e-03  8.9795160542245865e-03  9.3374494230176880e-03  9.5584855288222224e-03  9.6306099763920870e-03  9.5449091541845669e-03  9.2961387014823295e-03  8.8833479049894564e-03  8.3105643822531626e-03  7.5875436151408579e-03  6.7305888740618290e-03  5.7634453310582336e-03  4.7182806689043382e-03  3.6367346819717403e-03  2.5711332634375554e-03  1.5855418818492811e-03  7.5790242433617934e-04  1.7864190337568597e-04  -3.7007046262802935e-05  -9.7858442753957213e-06  4.8300060019328973e-05  2.1577209039771065e-04  4.7971365422013026e-04  8.2731835681156777e-04  1.2450508573591005e-03  1.7189568635101889e-03  2.2346810231558740e-03  2.7775805907544969e-03  3.3328325820034515e-03  3.8855634617233721e-03  4.4209952616229963e-03  4.9246115292127229e-03  5.3823440839947754e-03  5.7807823528496427e-03  6.1074070051395108e-03  6.3508497941373900e-03  6.5011816425653646e-03  6.5502311642905596e-03  6.4919359756489348e-03  6.3227293319647118e-03  6.0419648088233151e-03  5.6523819965218578e-03  5.1606163165877862e-03  4.5777567277496631e-03  3.9199538943865608e-03  3.2090871597368707e-03  2.4734783720605914e-03  1.7487173810604921e-03  1.0783781944747679e-03  5.1547175134780329e-04  1.2149917275136658e-04  -2.5169450435996278e-05  -4.9508941619835787e-06  2.4436233253667911e-05  1.0916529417052369e-04  2.4270242495769720e-04  4.1856886297009048e-04  6.2991674078955590e-04  8.6968600385123329e-04  1.1306135603272071e-03  1.4052908406039324e-03  1.6862180453083519e-03  1.9658697797408646e-03  2.2367689947730583e-03  2.4915709592259437e-03  2.7231577604347862e-03  2.9247442306835863e-03  3.0899961699947958e-03  3.2131618289981123e-03  3.2892176809476508e-03  3.3140295906492752e-03  3.2845305663096436e-03  3.1989163747578428e-03  3.0568603956868095e-03  2.8597492129011966e-03  2.6109405140054905e-03  2.3160452039286731e-03  1.9832350324330821e-03  1.6235799541234807e-03  1.2514091728801097e-03  8.8472867383826111e-04  5.4558344846034610e-04  2.6079252076450544e-04  6.1470142143092726e-05  -1.2734002945161148e-05  4.7221512290314858e-10  -2.2189570906772856e-09  -8.8113184048398230e-09  -1.7031481496204626e-08  -2.5499911828651096e-08  -3.3281525367925527e-08  -3.9845375858102193e-08  -4.4960801544613155e-08  -4.8636684160545109e-08  -5.1064072764847626e-08  -5.2566726833877740e-08  -5.3554797327007257e-08  -5.4480442147600637e-08  -5.5793694379820663e-08  -5.7897532182756414e-08  -6.1101841418493918e-08  -6.5577264563455128e-08  -7.1311666505544206e-08  -7.8073975370569533e-08  -8.5392167582183028e-08  -9.2553755527149056e-08  -9.8637821715061481e-08  -1.0258693971957128e-07  -1.0332483196780492e-07  -9.9920877879742689e-08  -9.1795430872870861e-08  -7.8948392658658318e-08  -6.2179451853550931e-08  -4.3233016893269239e-08  -2.4790314068625501e-08  -1.0030320187910652e-08  -1.8240104640429505e-09  3.2712552993160868e-10  4.9518131703185876e-06  -2.4440551004423721e-05  -1.0918243226763171e-04  -2.4273553132398728e-04  -4.1861839503519932e-04  -6.2998133498080736e-04  -8.6976326614828165e-04  -1.1307006533379923e-03  -1.4053849511545488e-03  -1.6863167393566590e-03  -1.9659712604521316e-03  -2.2368722702476801e-03  -2.4916759238919582e-03  -2.7232651906627433e-03  -2.9248556929616092e-03  -3.0901138392702425e-03  -3.2132882166627549e-03  -3.2893552772813306e-03  -3.3141804359174019e-03  -3.2846957781063916e-03  -3.1990956757629624e-03  -3.0570517039531322e-03  -2.8599483733275752e-03  -2.6111412611476170e-03  -2.3162394482202919e-03  -1.9834135493839843e-03  -1.6237335206524066e-03  -1.2515301319340102e-03  -8.8481277708996888e-04  -5.4563167607389856e-04  -2.6081203983723781e-04  -6.1473694578282340e-05  1.2734640419763445e-05  9.7866880877882712e-06  -4.8304022445544721e-05  -2.1578779682295701e-04  -4.7974393693110982e-04  -8.2736356099557325e-04  -1.2451096526339136e-03  -1.7190269816341687e-03  -2.2347598049511056e-03  -2.7776654195927502e-03  -3.3329212108747387e-03  -3.8856542496785436e-03  -4.4210873266678340e-03  -4.9247048220544196e-03  -5.3824393833338466e-03  -5.7808811803635894e-03  -6.1075114572514029e-03  -6.3509622891962554e-03  -6.5013045870298287e-03  -6.5503665504667340e-03  -6.4920849364812662e-03  -6.3228916945028690e-03  -6.0421387055204544e-03  -5.6525636096439883e-03  -5.1607998419807696e-03  -4.5779346453423530e-03  -3.9201176192000080e-03  -3.2092281109820063e-03  -2.4735894354383976e-03  -1.7487946154477565e-03  -1.0784224955474855e-03  -5.1548970352367448e-04  -1.2150245011345584e-04  2.5170039815027741e-05  1.4388638783600378e-05  -7.1017809722513325e-05  -3.1725679817504383e-04  -7.0533245938604334e-04  -1.2164137660554382e-03  -1.8305992112482201e-03  -2.5273722154361342e-03  -3.2856269942791723e-03  -4.0838354560704809e-03  -4.9002046096730178e-03  -5.7128671702557218e-03  -6.5000963509500237e-03  -7.2405498202732076e-03  -7.9135442463975064e-03  -8.4993630274185720e-03  -8.9795997368600135e-03  -9.3375400919191616e-03  -9.5585854479078389e-03  -9.6307210534214028e-03  -9.5450325403734666e-03  -9.2962743867828039e-03  -8.8834943631276985e-03  -8.3107183351054156e-03  -7.5876999963299064e-03  -6.7307410718923212e-03  -5.7635857760127609e-03  -4.7184017939041296e-03  -3.6368302220951172e-03  -2.5711997492670509e-03  -1.5855800603659796e-03  -7.5791794843177874e-04  -1.7864475917384113e-04  3.7007562515480830e-05  1.8641170460635851e-05  -9.2006916444216778e-05  -4.1102063676659551e-04  -9.1378997063753880e-04  -1.5759197926527933e-03  -2.3716284241332031e-03  -3.2743371331147896e-03  -4.2567033074498110e-03  -5.2908365685325233e-03  -6.3485027299774602e-03  -7.4013708478528808e-03  -8.4212916346517105e-03  -9.3806136576643252e-03  -1.0252539148358310e-02  -1.1011522787907839e-02  -1.1633716749881454e-02  -1.2097465643259746e-02  -1.2383855251156936e-02  -1.2477319256019271e-02  -1.2366308444807723e-02  -1.2044027221322372e-02  -1.1509242601207342e-02  -1.0767171328464562e-02  -9.8304510135437551e-03  -8.7202024631112384e-03  -7.4671881285423855e-03  -6.1130826580977965e-03  -4.7118329581887540e-03  -3.3312314916636265e-03  -2.0542819557337675e-03  -9.8196901558857477e-04  -2.3145662900843263e-04  4.7948106471659433e-05  2.2427731970808486e-05  -1.1069608140429674e-04  -4.9450946359913181e-04  -1.0994033419782707e-03  -1.8960294954819365e-03  -2.8533719661182895e-03  -3.9394554702299259e-03  -5.1213847775476310e-03  -6.3656045887443870e-03  -7.6381450080409193e-03  -8.9049189762587608e-03  -1.0132057466730984e-02  -1.1286290122959907e-02  -1.2335373518189601e-02  -1.3248571087508449e-02  -1.3997188690998539e-02  -1.4555170204075731e-02  -1.4899757831468867e-02  -1.5012222189644523e-02  -1.4878667556498739e-02  -1.4490918076786884e-02  -1.3847491118832954e-02  -1.2954664524017190e-02  -1.1827644800837969e-02  -1.0491844859005344e-02  -8.9842772266017241e-03  -7.3550820940714839e-03  -5.6691632415907982e-03  -4.0080811728613669e-03  -2.4716975130352728e-03  -1.1815108534439555e-03  -2.7849300081387354e-04  5.7692344390966505e-05  2.5631695248623801e-05  -1.2650968455863167e-04  -5.6515203411948564e-04  -1.2564568458639754e-03  -2.1668870115246377e-03  -3.2609998529046537e-03  -4.5022555031460467e-03  -5.8530612192866493e-03  -7.2750683035889092e-03  -8.7294528633300398e-03  -1.0177256083062353e-02  -1.1579767655907208e-02  -1.2898961093400560e-02  -1.4097983392782176e-02  -1.5141703704172331e-02  -1.5997325544797061e-02  -1.6635067607877432e-02  -1.7028918551252586e-02  -1.7157471539071309e-02  -1.7004844701189660e-02  -1.6561694103572545e-02  -1.5826326268398989e-02  -1.4805917885376257e-02  -1.3517850694336378e-02  -1.1991171288258315e-02  -1.0268182601647894e-02  -8.4061892933730425e-03  -6.4793665359306725e-03  -4.5809235545393717e-03  -2.8249844070750989e-03  -1.3504052278096234e-03  -3.1830725729690041e-04  6.5940617769534945e-05  2.8136334307397116e-05  -1.3887165416709847e-04  -6.2037539884259214e-04  -1.3792316988926686e-03  -2.3786322673623951e-03  -3.5796769821489411e-03  -4.9422596083780789e-03  -6.4251157115673210e-03  -7.9861487178790082e-03  -9.5827385883038886e-03  -1.1172115913026075e-02  -1.2711783312889739e-02  -1.4159993668195158e-02  -1.5476287902716343e-02  -1.6622097453640048e-02  -1.7561416460064573e-02  -1.8261549248043858e-02  -1.8693939051338003e-02  -1.8835084320818568e-02  -1.8667549389234806e-02  -1.8181076707808452e-02  -1.7373808332672363e-02  -1.6253624966858886e-02  -1.4839611199007773e-02  -1.3163657499950047e-02  -1.1272206286084866e-02  -9.2281664486335725e-03  -7.1129631785278339e-03  -5.0289120879375669e-03  -3.1012848459613072e-03  -1.4825054587649339e-03  -3.4945060474849641e-04  7.2392801630112192e-05  2.9824805371227646e-05  -1.4720538477429237e-04  -6.5760469114295483e-04  -1.4620059028373185e-03  -2.5214010509602347e-03  -3.7945634886137995e-03  -5.2389847980876432e-03  -6.8109250980716825e-03  -8.4657592614405530e-03  -1.0158305020076055e-02  -1.1843220376167240e-02  -1.3475450955881053e-02  -1.5010737383239641e-02  -1.6406185614149287e-02  -1.7620905736573832e-02  -1.8616724634928930e-02  -1.9358978483413544e-02  -1.9817391402596713e-02  -1.9967047038344968e-02  -1.9789460244562126e-02  -1.9273756505892980e-02  -1.8417967193497763e-02  -1.7230449365935332e-02  -1.5731439120651704e-02  -1.395474947