<?xml version="1.0"?>
<VTKFile type="UnstructuredGrid"  version="0.1"  >
<UnstructuredGrid>
<Piece  NumberOfPoints="1089" NumberOfCells="1024">
<Points>
<DataArray  type="Float64"  NumberOfComponents="3"  format="ascii">0 0 0  0.03125 0 0  0.0625 0 0  0.09375 0 0  0.125 0 0  0.15625 0 0  0.1875 0 0  0.21875 0 0  0.25 0 0  0.28125 0 0  0.3125 0 0  0.34375 0 0  0.375 0 0  0.40625 0 0  0.4375 0 0  0.46875 0 0  0.5 0 0  0.53125 0 0  0.5625 0 0  0.59375 0 0  0.625 0 0  0.65625 0 0  0.6875 0 0  0.71875 0 0  0.75 0 0  0.78125 0 0  0.8125 0 0  0.84375 0 0  0.875 0 0  0.90625 0 0  0.9375 0 0  0.96875 0 0  1 0 0  0 0.03125 0  0.03125 0.03125 0  0.0625 0.03125 0  0.09375 0.03125 0  0.125 0.03125 0  0.15625 0.03125 0  0.1875 0.03125 0  0.21875 0.03125 0  0.25 0.03125 0  0.28125 0.03125 0  0.3125 0.03125 0  0.34375 0.03125 0  0.375 0.03125 0  0.40625 0.03125 0  0.4375 0.03125 0  0.46875 0.03125 0  0.5 0.03125 0  0.53125 0.03125 0  0.5625 0.03125 0  0.59375 0.03125 0  0.625 0.03125 0  0.65625 0.03125 0  0.6875 0.03125 0  0.71875 0.03125 0  0.75 0.03125 0  0.78125 0.03125 0  0.8125 0.03125 0  0.84375 0.03125 0  0.875 0.03125 0  0.90625 0.03125 0  0.9375 0.03125 0  0.96875 0.03125 0  1 0.03125 0  0 0.0625 0  0.03125 0.0625 0  0.0625 0.0625 0  0.09375 0.0625 0  0.125 0.0625 0  0.15625 0.0625 0  0.1875 0.0625 0  0.21875 0.0625 0  0.25 0.0625 0  0.28125 0.0625 0  0.3125 0.0625 0  0.34375 0.0625 0  0.375 0.0625 0  0.40625 0.0625 0  0.4375 0.0625 0  0.46875 0.0625 0  0.5 0.0625 0  0.53125 0.0625 0  0.5625 0.0625 0  0.59375 0.0625 0  0.625 0.0625 0  0.65625 0.0625 0  0.6875 0.0625 0  0.71875 0.0625 0  0.75 0.0625 0  0.78125 0.0625 0  0.8125 0.0625 0  0.84375 0.0625 0  0.875 0.0625 0  0.90625 0.0625 0  0.9375 0.0625 0  0.96875 0.0625 0  1 0.0625 0  0 0.09375 0  0.03125 0.09375 0  0.0625 0.09375 0  0.09375 0.09375 0  0.125 0.09375 0  0.15625 0.09375 0  0.1875 0.09375 0  0.21875 0.09375 0  0.25 0.09375 0  0.28125 0.09375 0  0.3125 0.09375 0  0.34375 0.09375 0  0.375 0.09375 0  0.40625 0.09375 0  0.4375 0.09375 0  0.46875 0.09375 0  0.5 0.09375 0  0.53125 0.09375 0  0.5625 0.09375 0  0.59375 0.09375 0  0.625 0.09375 0  0.65625 0.09375 0  0.6875 0.09375 0  0.71875 0.09375 0  0.75 0.09375 0  0.78125 0.09375 0  0.8125 0.09375 0  0.84375 0.09375 0  0.875 0.09375 0  0.90625 0.09375 0  0.9375 0.09375 0  0.96875 0.09375 0  1 0.09375 0  0 0.125 0  0.03125 0.125 0  0.0625 0.125 0  0.09375 0.125 0  0.125 0.125 0  0.15625 0.125 0  0.1875 0.125 0  0.21875 0.125 0  0.25 0.125 0  0.28125 0.125 0  0.3125 0.125 0  0.34375 0.125 0  0.375 0.125 0  0.40625 0.125 0  0.4375 0.125 0  0.46875 0.125 0  0.5 0.125 0  0.53125 0.125 0  0.5625 0.125 0  0.59375 0.125 0  0.625 0.125 0  0.65625 0.125 0  0.6875 0.125 0  0.71875 0.125 0  0.75 0.125 0  0.78125 0.125 0  0.8125 0.125 0  0.84375 0.125 0  0.875 0.125 0  0.90625 0.125 0  0.9375 0.125 0  0.96875 0.125 0  1 0.125 0  0 0.15625 0  0.03125 0.15625 0  0.0625 0.15625 0  0.09375 0.15625 0  0.125 0.15625 0  0.15625 0.15625 0  0.1875 0.15625 0  0.21875 0.15625 0  0.25 0.15625 0  0.28125 0.15625 0  0.3125 0.15625 0  0.34375 0.15625 0  0.375 0.15625 0  0.40625 0.15625 0  0.4375 0.15625 0  0.46875 0.15625 0  0.5 0.15625 0  0.53125 0.15625 0  0.5625 0.15625 0  0.59375 0.15625 0  0.625 0.15625 0  0.65625 0.15625 0  0.6875 0.15625 0  0.71875 0.15625 0  0.75 0.15625 0  0.78125 0.15625 0  0.8125 0.15625 0  0.84375 0.15625 0  0.875 0.15625 0  0.90625 0.15625 0  0.9375 0.15625 0  0.96875 0.15625 0  1 0.15625 0  0 0.1875 0  0.03125 0.1875 0  0.0625 0.1875 0  0.09375 0.1875 0  0.125 0.1875 0  0.15625 0.1875 0  0.1875 0.1875 0  0.21875 0.1875 0  0.25 0.1875 0  0.28125 0.1875 0  0.3125 0.1875 0  0.34375 0.1875 0  0.375 0.1875 0  0.40625 0.1875 0  0.4375 0.1875 0  0.46875 0.1875 0  0.5 0.1875 0  0.53125 0.1875 0  0.5625 0.1875 0  0.59375 0.1875 0  0.625 0.1875 0  0.65625 0.1875 0  0.6875 0.1875 0  0.71875 0.1875 0  0.75 0.1875 0  0.78125 0.1875 0  0.8125 0.1875 0  0.84375 0.1875 0  0.875 0.1875 0  0.90625 0.1875 0  0.9375 0.1875 0  0.96875 0.1875 0  1 0.1875 0  0 0.21875 0  0.03125 0.21875 0  0.0625 0.21875 0  0.09375 0.21875 0  0.125 0.21875 0  0.15625 0.21875 0  0.1875 0.21875 0  0.21875 0.21875 0  0.25 0.21875 0  0.28125 0.21875 0  0.3125 0.21875 0  0.34375 0.21875 0  0.375 0.21875 0  0.40625 0.21875 0  0.4375 0.21875 0  0.46875 0.21875 0  0.5 0.21875 0  0.53125 0.21875 0  0.5625 0.21875 0  0.59375 0.21875 0  0.625 0.21875 0  0.65625 0.21875 0  0.6875 0.21875 0  0.71875 0.21875 0  0.75 0.21875 0  0.78125 0.21875 0  0.8125 0.21875 0  0.84375 0.21875 0  0.875 0.21875 0  0.90625 0.21875 0  0.9375 0.21875 0  0.96875 0.21875 0  1 0.21875 0  0 0.25 0  0.03125 0.25 0  0.0625 0.25 0  0.09375 0.25 0  0.125 0.25 0  0.15625 0.25 0  0.1875 0.25 0  0.21875 0.25 0  0.25 0.25 0  0.28125 0.25 0  0.3125 0.25 0  0.34375 0.25 0  0.375 0.25 0  0.40625 0.25 0  0.4375 0.25 0  0.46875 0.25 0  0.5 0.25 0  0.53125 0.25 0  0.5625 0.25 0  0.59375 0.25 0  0.625 0.25 0  0.65625 0.25 0  0.6875 0.25 0  0.71875 0.25 0  0.75 0.25 0  0.78125 0.25 0  0.8125 0.25 0  0.84375 0.25 0  0.875 0.25 0  0.90625 0.25 0  0.9375 0.25 0  0.96875 0.25 0  1 0.25 0  0 0.28125 0  0.03125 0.28125 0  0.0625 0.28125 0  0.09375 0.28125 0  0.125 0.28125 0  0.15625 0.28125 0  0.1875 0.28125 0  0.21875 0.28125 0  0.25 0.28125 0  0.28125 0.28125 0  0.3125 0.28125 0  0.34375 0.28125 0  0.375 0.28125 0  0.40625 0.28125 0  0.4375 0.28125 0  0.46875 0.28125 0  0.5 0.28125 0  0.53125 0.28125 0  0.5625 0.28125 0  0.59375 0.28125 0  0.625 0.28125 0  0.65625 0.28125 0  0.6875 0.28125 0  0.71875 0.28125 0  0.75 0.28125 0  0.78125 0.28125 0  0.8125 0.28125 0  0.84375 0.28125 0  0.875 0.28125 0  0.90625 0.28125 0  0.9375 0.28125 0  0.96875 0.28125 0  1 0.28125 0  0 0.3125 0  0.03125 0.3125 0  0.0625 0.3125 0  0.09375 0.3125 0  0.125 0.3125 0  0.15625 0.3125 0  0.1875 0.3125 0  0.21875 0.3125 0  0.25 0.3125 0  0.28125 0.3125 0  0.3125 0.3125 0  0.34375 0.3125 0  0.375 0.3125 0  0.40625 0.3125 0  0.4375 0.3125 0  0.46875 0.3125 0  0.5 0.3125 0  0.53125 0.3125 0  0.5625 0.3125 0  0.59375 0.3125 0  0.625 0.3125 0  0.65625 0.3125 0  0.6875 0.3125 0  0.71875 0.3125 0  0.75 0.3125 0  0.78125 0.3125 0  0.8125 0.3125 0  0.84375 0.3125 0  0.875 0.3125 0  0.90625 0.3125 0  0.9375 0.3125 0  0.96875 0.3125 0  1 0.3125 0  0 0.34375 0  0.03125 0.34375 0  0.0625 0.34375 0  0.09375 0.34375 0  0.125 0.34375 0  0.15625 0.34375 0  0.1875 0.34375 0  0.21875 0.34375 0  0.25 0.34375 0  0.28125 0.34375 0  0.3125 0.34375 0  0.34375 0.34375 0  0.375 0.34375 0  0.40625 0.34375 0  0.4375 0.34375 0  0.46875 0.34375 0  0.5 0.34375 0  0.53125 0.34375 0  0.5625 0.34375 0  0.59375 0.34375 0  0.625 0.34375 0  0.65625 0.34375 0  0.6875 0.34375 0  0.71875 0.34375 0  0.75 0.34375 0  0.78125 0.34375 0  0.8125 0.34375 0  0.84375 0.34375 0  0.875 0.34375 0  0.90625 0.34375 0  0.9375 0.34375 0  0.96875 0.34375 0  1 0.34375 0  0 0.375 0  0.03125 0.375 0  0.0625 0.375 0  0.09375 0.375 0  0.125 0.375 0  0.15625 0.375 0  0.1875 0.375 0  0.21875 0.375 0  0.25 0.375 0  0.28125 0.375 0  0.3125 0.375 0  0.34375 0.375 0  0.375 0.375 0  0.40625 0.375 0  0.4375 0.375 0  0.46875 0.375 0  0.5 0.375 0  0.53125 0.375 0  0.5625 0.375 0  0.59375 0.375 0  0.625 0.375 0  0.65625 0.375 0  0.6875 0.375 0  0.71875 0.375 0  0.75 0.375 0  0.78125 0.375 0  0.8125 0.375 0  0.84375 0.375 0  0.875 0.375 0  0.90625 0.375 0  0.9375 0.375 0  0.96875 0.375 0  1 0.375 0  0 0.40625 0  0.03125 0.40625 0  0.0625 0.40625 0  0.09375 0.40625 0  0.125 0.40625 0  0.15625 0.40625 0  0.1875 0.40625 0  0.21875 0.40625 0  0.25 0.40625 0  0.28125 0.40625 0  0.3125 0.40625 0  0.34375 0.40625 0  0.375 0.40625 0  0.40625 0.40625 0  0.4375 0.40625 0  0.46875 0.40625 0  0.5 0.40625 0  0.53125 0.40625 0  0.5625 0.40625 0  0.59375 0.40625 0  0.625 0.40625 0  0.65625 0.40625 0  0.6875 0.40625 0  0.71875 0.40625 0  0.75 0.40625 0  0.78125 0.40625 0  0.8125 0.40625 0  0.84375 0.40625 0  0.875 0.40625 0  0.90625 0.40625 0  0.9375 0.40625 0  0.96875 0.40625 0  1 0.40625 0  0 0.4375 0  0.03125 0.4375 0  0.0625 0.4375 0  0.09375 0.4375 0  0.125 0.4375 0  0.15625 0.4375 0  0.1875 0.4375 0  0.21875 0.4375 0  0.25 0.4375 0  0.28125 0.4375 0  0.3125 0.4375 0  0.34375 0.4375 0  0.375 0.4375 0  0.40625 0.4375 0  0.4375 0.4375 0  0.46875 0.4375 0  0.5 0.4375 0  0.53125 0.4375 0  0.5625 0.4375 0  0.59375 0.4375 0  0.625 0.4375 0  0.65625 0.4375 0  0.6875 0.4375 0  0.71875 0.4375 0  0.75 0.4375 0  0.78125 0.4375 0  0.8125 0.4375 0  0.84375 0.4375 0  0.875 0.4375 0  0.90625 0.4375 0  0.9375 0.4375 0  0.96875 0.4375 0  1 0.4375 0  0 0.46875 0  0.03125 0.46875 0  0.0625 0.46875 0  0.09375 0.46875 0  0.125 0.46875 0  0.15625 0.46875 0  0.1875 0.46875 0  0.21875 0.46875 0  0.25 0.46875 0  0.28125 0.46875 0  0.3125 0.46875 0  0.34375 0.46875 0  0.375 0.46875 0  0.40625 0.46875 0  0.4375 0.46875 0  0.46875 0.46875 0  0.5 0.46875 0  0.53125 0.46875 0  0.5625 0.46875 0  0.59375 0.46875 0  0.625 0.46875 0  0.65625 0.46875 0  0.6875 0.46875 0  0.71875 0.46875 0  0.75 0.46875 0  0.78125 0.46875 0  0.8125 0.46875 0  0.84375 0.46875 0  0.875 0.46875 0  0.90625 0.46875 0  0.9375 0.46875 0  0.96875 0.46875 0  1 0.46875 0  0 0.5 0  0.03125 0.5 0  0.0625 0.5 0  0.09375 0.5 0  0.125 0.5 0  0.15625 0.5 0  0.1875 0.5 0  0.21875 0.5 0  0.25 0.5 0  0.28125 0.5 0  0.3125 0.5 0  0.34375 0.5 0  0.375 0.5 0  0.40625 0.5 0  0.4375 0.5 0  0.46875 0.5 0  0.5 0.5 0  0.53125 0.5 0  0.5625 0.5 0  0.59375 0.5 0  0.625 0.5 0  0.65625 0.5 0  0.6875 0.5 0  0.71875 0.5 0  0.75 0.5 0  0.78125 0.5 0  0.8125 0.5 0  0.84375 0.5 0  0.875 0.5 0  0.90625 0.5 0  0.9375 0.5 0  0.96875 0.5 0  1 0.5 0  0 0.53125 0  0.03125 0.53125 0  0.0625 0.53125 0  0.09375 0.53125 0  0.125 0.53125 0  0.15625 0.53125 0  0.1875 0.53125 0  0.21875 0.53125 0  0.25 0.53125 0  0.28125 0.53125 0  0.3125 0.53125 0  0.34375 0.53125 0  0.375 0.53125 0  0.40625 0.53125 0  0.4375 0.53125 0  0.46875 0.53125 0  0.5 0.53125 0  0.53125 0.53125 0  0.5625 0.53125 0  0.59375 0.53125 0  0.625 0.53125 0  0.65625 0.53125 0  0.6875 0.53125 0  0.71875 0.53125 0  0.75 0.53125 0  0.78125 0.531
[...]
<PointData  Scalars="v_sol"> 
<DataArray  type="Float64"  Name="v_sol"  format="ascii">3.3881317890172014e-21  9.1534149275847195e-06  1.7398250444111252e-05  2.4640326971454928e-05  3.0823305012778773e-05  3.5903578562365109e-05  3.9845916637526105e-05  4.2622947335411288e-05  4.4215839648096361e-05  4.4615402245847300e-05  4.3823398548651110e-05  4.1854014300065292e-05  3.8735461779673752e-05  3.4511720816097073e-05  2.9244423271449388e-05  2.3014890607212219e-05  1.5926335842841394e-05  8.1062425187936367e-06  -2.9106545809992523e-07  -9.0816477264120622e-06  -1.8048948302940951e-05  -2.6940554328483760e-05  -3.5464691345843764e-05  -4.3286431087321803e-05  -5.0023584967294763e-05  -5.5242255474198021e-05  -5.8452025945992874e-05  -5.9100799306993287e-05  -5.6569472220272996e-05  -5.0167016415047025e-05  -3.9130081613425510e-05  -2.2636895279837666e-05  4.0657581468206398e-20  -6.7762635780344042e-21  -4.4697577260945366e-05  -8.4927033953631107e-05  -1.2026257298928657e-04  -1.5043211547564233e-04  -1.7522231447438745e-04  -1.9446039971664187e-04  -2.0801219527685248e-04  -2.1578542284196811e-04  -2.1773500058064262e-04  -2.1386940944431124e-04  -2.0425782210143704e-04  -1.8903791142388070e-04  -1.6842433476459373e-04  -1.4271792339200031e-04  -1.1231562192574353e-04  -7.7721231577781199e-05  -3.9557017664913756e-05  1.4237519189179962e-06  4.4323263680535484e-05  8.8084530395348077e-05  1.3147558812115135e-04  1.7307241888679512e-04  2.1124048987660620e-04  2.4411479284853360e-04  2.6957827472512283e-04  2.8523861013517626e-04  2.8840346431337671e-04  2.7605524059418166e-04  2.4482849145313036e-04  1.9100722096332837e-04  1.1058976515278067e-04  -9.4867690092481590e-20  6.7762635780344027e-21  -1.9482192324791938e-04  -3.6987747567157332e-04  -5.2362214608532315e-04  -6.5490269161628156e-04  -7.6278680222522635e-04  -8.4651498867585259e-04  -9.0549760750820857e-04  -9.3932932515449071e-04  -9.4781168180993578e-04  -9.3098034775512188e-04  -8.8913584787665375e-04  -8.2287735707018512e-04  -7.3313951271709648e-04  -6.2123234373091557e-04  -4.8888449229022191e-04  -3.3828994904395868e-04  -1.7215855432221313e-04  6.2294548181819719e-06  1.9296454507572715e-04  3.8344430078827307e-04  5.7230479051211675e-04  7.5334650133494730e-04  9.1945444450398873e-04  1.0625120658905843e-03  1.1733087356398612e-03  1.2414410240606710e-03  1.2552092324283910e-03  1.2015141570677428e-03  1.0657702063301357e-03  8.3188374374155289e-04  4.8247984099236848e-04  3.2526065174565123e-19  7.5645078695088652e-20  -4.2062711457922498e-04  -7.9809507587811029e-04  -1.1295341703387869e-03  -1.4125525213666177e-03  -1.6451482298184537e-03  -1.8256748078736790e-03  -1.9528510288194017e-03  -2.0257954416322806e-03  -2.0440751573835578e-03  -2.0077641407812135e-03  -1.9175089825872211e-03  -1.7746014164556525e-03  -1.5810574568184453e-03  -1.3397033412136327e-03  -1.0542686262709044e-03  -7.2948688723461401e-04  -3.7120454158739427e-04  1.3501625490688251e-05  4.1619760526493121e-04  8.2695530307616300e-04  1.2342049607272714e-03  1.6245761410054464e-03  1.9827265888004344e-03  2.2911584495961456e-03  2.5300217757230218e-03  2.6769063641753350e-03  2.7066256421874992e-03  2.5910028021299651e-03  2.2986850220849016e-03  1.7950486166260265e-03  1.0423380381061997e-03  -5.3100633533208602e-19  -1.9960791702389470e-19  -7.0395666689036926e-04  -1.3352150931806163e-03  -1.8893550410919227e-03  -2.3625155214316807e-03  -2.7513834217611018e-03  -3.0532062634980230e-03  -3.2658337968762430e-03  -3.3877838767395647e-03  -3.4183262658763172e-03  -3.3575804105932848e-03  -3.2066251856875134e-03  -2.9676198293652652e-03  -2.6439359915406300e-03  -2.2403012225856614e-03  -1.7629544715897362e-03  -1.2198143202335533e-03  -6.2066079118336848e-04  2.2668341111994158e-05  6.9606573544866003e-04  1.3829261030643720e-03  2.0639001719304950e-03  2.7166299261272586e-03  3.3154641698354757e-03  3.8311538016425955e-03  4.2305269467813765e-03  4.4761457207776016e-03  4.5259497432781921e-03  4.3328981763752676e-03  3.8446338164224297e-03  3.0032103380620823e-03  1.7448951710138535e-03  4.8789097761847680e-19  1.8068550315773811e-19  -1.0276219813935591e-03  -1.9486954827374772e-03  -2.7570751018347840e-03  -3.4472687525578770e-03  -4.0144955075806050e-03  -4.4547521951198692e-03  -4.7648993432509827e-03  -4.9427681474659563e-03  -4.9872869480410914e-03  -4.8986252606084604e-03  -4.6783541601322590e-03  -4.3296225995965373e-03  -3.8573498341557214e-03  -3.2684345254053535e-03  -2.5719813759921117e-03  -1.7795463402914093e-03  -9.0540160413585800e-04  3.3178356785198207e-05  1.0156082373984189e-03  2.0176594132300550e-03  3.0111020124144730e-03  3.9633201158361187e-03  4.8368988403657935e-03  5.5891825047721831e-03  6.1718039664595183e-03  6.5301868632552315e-03  6.6030253324594812e-03  6.3217499655644121e-03  5.6099933589153425e-03  4.3830629089141159e-03  2.5474072720327512e-03  -7.2233164533376639e-19  2.0417572117661785e-19  -1.3758805487696752e-03  -2.6087374859279379e-03  -3.6905787363850904e-03  -4.6141815623466712e-03  -5.3732066945389465e-03  -5.9623181854042201e-03  -6.3773181689696420e-03  -6.6153008826694256e-03  -6.6748271722643152e-03  -6.5561195290738429e-03  -6.2612775781119489e-03  -5.7945142442988222e-03  -5.1624131996558121e-03  -4.3742085243959781e-03  -3.4420877789938776e-03  -2.3815198933923431e-03  -1.2116094477792076e-03  4.4520943600523802e-05  1.3593183258934873e-03  2.7003552808279293e-03  4.0298520774679873e-03  5.3041632529085524e-03  6.4732269848820512e-03  7.4799760526656420e-03  8.2597099529466509e-03  8.7394289515895524e-03  8.8371324405928410e-03  8.4610853361594563e-03  7.5090546204217602e-03  5.8675103707017248e-03  3.4107650253049622e-03  3.7947076036992640e-18  -7.8054795336710877e-19  -1.7343348471898167e-03  -3.2880774172765891e-03  -4.6513326635512593e-03  -5.8151068825088061e-03  -6.7714697803995284e-03  -7.5137237558220299e-03  -8.0365877791014201e-03  -8.3364005853418764e-03  -8.4113458063448405e-03  -8.2617004555090943e-03  -7.8901077363717972e-03  -7.3018751333967912e-03  -6.5052989236962320e-03  -5.5120164797554747e-03  -4.3373879591885245e-03  -3.0009091801667283e-03  -1.5266576577325547e-03  5.6226073099205339e-05  1.7130195992240724e-03  3.4028599020635656e-03  5.0781423952915372e-03  6.6838754078886054e-03  8.1569879515214945e-03  9.4255889242880683e-03  1.0408176387416847e-02  1.1012796136540324e-02  1.1136149175588438e-02  1.0662646989853473e-02  9.4634103626055188e-03  7.3951997767455211e-03  4.2992539373148527e-03  -2.4595889438723070e-18  1.2352718728405522e-18  -2.0899678318557079e-03  -3.9620598515588941e-03  -5.6044864363830067e-03  -7.0065001305274852e-03  -8.1585992410778702e-03  -9.0527422563510714e-03  -9.6825787270557895e-03  -1.0043701030649320e-02  -1.0133920168153539e-02  -9.9535678429490543e-03  -9.5058265972551466e-03  -8.7970896407276421e-03  -7.8373520600436338e-03  -6.6406352474961319e-03  -5.2254465695308772e-03  -3.6152764829441505e-03  -1.8391354835249158e-03  6.7866567692864726e-05  2.0638960578195720e-03  4.0997233860671327e-03  6.1180000252186494e-03  8.0524820212017640e-03  9.8271971350097805e-03  1.1355552961879348e-02  1.2539383513769225e-02  1.3267931776674057e-02  1.3416765308009169e-02  1.2846620461157959e-02  1.1402167536255073e-02  8.9106838416853455e-03  5.1806149729737563e-03  -1.0842021724855040e-18  -1.1247734550356880e-18  -2.4311352176117928e-03  -4.6086247146135736e-03  -6.5188543513566132e-03  -8.1493941439053086e-03  -9.4892383943515728e-03  -1.0529060777558354e-02  -1.1261488810829858e-02  -1.1681401656879366e-02  -1.1786254545219147e-02  -1.1576432520797261e-02  -1.1055635864666838e-02  -1.0231299377189553e-02  -9.1150477171151236e-03  -7.7231890893177486e-03  -6.0772497241334588e-03  -4.2045517626631175e-03  -2.1388373379175522e-03  7.9058189061894044e-05  2.4004807235180376e-03  4.7681764127619070e-03  7.1154517442364616e-03  9.3652713283179471e-03  1.1429289875604169e-02  1.3206814819691130e-02  1.4583695901787836e-02  1.5431137672515055e-02  1.5604430036485827e-02  1.4941590345514746e-02  1.3261907931787992e-02  1.0364378499485035e-02  6.0260124822618345e-03  1.3150930626052602e-18  -6.0203632612229415e-20  -2.7475669186146174e-03  -5.2083123637909701e-03  -7.3669238745506238e-03  -9.2094095069115822e-03  -1.0723370005377826e-02  -1.1898289969133330e-02  -1.2725851632300547e-02  -1.3200274803925662e-02  -1.3318686229982288e-02  -1.3081521332373267e-02  -1.2492961054770666e-02  -1.1561406438012794e-02  -1.0299993548564193e-02  -8.7271514646985963e-03  -6.8672061579728681e-03  -4.7510332698023844e-03  -2.4167629589539000e-03  8.9459824796264936e-05  2.7126561096752272e-03  5.3881310149830799e-03  8.0405253467146498e-03  1.0582796658105515e-02  1.2915125591451526e-02  1.4923743098930919e-02  1.6479673802904483e-02  1.7437390188827933e-02  1.7633371383053702e-02  1.6884558834914444e-02  1.4986699303560230e-02  1.1712563461238603e-02  6.8100268558686150e-03  -9.7578195523695361e-19  -1.5229505599510053e-19  -3.0303652231938104e-03  -5.7442615516145783e-03  -8.1248539987472338e-03  -1.0156752988601168e-02  -1.1826314165006234e-02  -1.3121960816696556e-02  -1.4034532038722741e-02  -1.4557659878618436e-02  -1.4688178667660009e-02  -1.4426569624273199e-02  -1.3777443718817140e-02  -1.2750065747635576e-02  -1.1358922589664531e-02  -9.6243387034264747e-03  -7.5731420518247959e-03  -5.2393838027201814e-03  -2.6651153334370076e-03  9.8773741122380613e-05  2.9916525994035806e-03  5.9421771841028466e-03  8.8672447790563609e-03  1.1670870629584818e-02  1.4242981782424682e-02  1.6458122985701366e-02  1.8174069030500780e-02  1.9230337264883875e-02  1.9446593106557095e-02  1.8620940205824769e-02  1.6528085567186789e-02  1.2917368703580855e-02  7.5106432539395630e-03  3.0564561011236528e-18  4.5481397404789118e-19  -3.2720036859367144e-03  -6.2022083776912089e-03  -8.7724747977262780e-03  -1.0966217674641853e-02  -1.2768728635688915e-02  -1.4167524776293280e-02  -1.5152725729919509e-02  -1.5717462290238765e-02  -1.5858319728783245e-02  -1.5575818970444976e-02  -1.4874938791829287e-02  -1.3765682229894364e-02  -1.2263690447569378e-02  -1.0390907402497070e-02  -8.1762988005284077e-03  -5.6566289803140941e-03  -2.8772995628392004e-03  1.0674609531033437e-04  3.2300483872579654e-03  6.4155823888027638e-03  9.5736294870706652e-03  1.2600564663120080e-02  1.5377554053999144e-02  1.7769157007625609e-02  1.9621826321970938e-02  2.0762299696670976e-02  2.0995874607378031e-02  2.0104557874751385e-02  1.7845080255626516e-02  1.3946765652001390e-02  8.1092443128107303e-03  -4.9873299934333212e-18  9.3512437376874757e-19  -3.4663259412505117e-03  -6.5704847417196689e-03  -9.2932860299800094e-03  -1.1617181868696107e-02  -1.3526607936425822e-02  -1.5008352816254360e-02  -1.6051958044815812e-02  -1.6650151852338639e-02  -1.6799319696884901e-02  -1.6500014801316930e-02  -1.5757511977069913e-02  -1.4582408093514042e-02  -1.2991272643658715e-02  -1.1007351974710996e-02  -8.6613308975491930e-03  -5.9921555610512982e-03  -3.0479216730491952e-03  1.1316763178188262e-04  3.4217697385895006e-03  6.7962915168569126e-03  1.0141694207517352e-02  1.3348208799303698e-02  1.6289956080413552e-02  1.8823465093904465e-02  2.0786083175595393e-02  2.1994270108096833e-02  2.2241768195496062e-02  2.1297639300843503e-02  1.8904159196549617e-02  1.4774559111749014e-02  8.5906043048846279e-03  -1.9500860520336051e-18  -1.9228607432183183e-18  -3.6085447606117121e-03  -6.8400170363276504e-03  -9.6744558689889470e-03  -1.2093608038835843e-02  -1.4081282495386104e-02  -1.5623734657908291e-02  -1.6710083145275313e-02  -1.7332761795299783e-02  -1.7488010052340512e-02  -1.7176404960648744e-02  -1.6403438125033244e-02  -1.5180141112864611e-02  -1.3523762889289239e-02  -1.1458503011487068e-02  -9.0163044633780123e-03  -6.2377101914310746e-03  -3.1727876056027019e-03  1.1787446203387075e-04  3.5620915914815541e-03  7.0749273779973903e-03  1.0557449457541685e-02  1.3895392228895435e-02  1.6957720143290049e-02  1.9595084945394543e-02  2.1638169691749112e-02  2.2895911751912613e-02  2.3153596335703425e-02  2.2170811440903732e-02  1.9679254564773551e-02  1.5380381179106012e-02  8.9428849432492182e-03  1.3010426069826057e-18  6.8478643318569928e-19  -3.6952413056867504e-03  -7.0043250482792925e-03  -9.9068197542808659e-03  -1.2384041784266397e-02  -1.4419417770791846e-02  -1.5998878002327622e-02  -1.7111283263428926e-02  -1.7748887953013048e-02  -1.7907842545784973e-02  -1.7588738650033624e-02  -1.6797200067123850e-02  -1.5544523393156659e-02  -1.3848371837446789e-02  -1.1733526077196195e-02  -9.2326961302896336e-03  -6.3873984126068531e-03  -3.2489023549670099e-03  1.2074881065964670e-04  3.6476382189219942e-03  7.2447913235388862e-03  1.0810902139619738e-02  1.4228963868655549e-02  1.7364797586866591e-02  2.0065472173161441e-02  2.2157608095098071e-02  2.3445557066460274e-02  2.3709448966492911e-02  2.2703096819335949e-02  2.0151750142716258e-02  1.5749686667151659e-02  9.1576323703797379e-03  -8.4427234992812667e-18  1.4533551214788443e-18  -3.7243645987271173e-03  -7.0595211550207870e-03  -9.9848795205830596e-03  -1.2481611024420880e-02  -1.4533013546707834e-02  -1.6124907918647454e-02  -1.7246068135838660e-02  -1.7888688190165543e-02  -1.8048888578046592e-02  -1.7727265741865870e-02  -1.6929487863468744e-02  -1.5666940571688603e-02  -1.3957426265654212e-02  -1.1825920903942579e-02  -9.3053922743961265e-03  -6.4376839454625533e-03  -3.2744693102909673e-03  1.2171962805601533e-04  3.6763838141826402e-03  7.3018638193470715e-03  1.0896056099647337e-02  1.4341032864383445e-02  1.7501559168542177e-02  2.0223500333247778e-02  2.2332112238789312e-02  2.3630206432738741e-02  2.3896181380078700e-02  2.2881910600000031e-02  2.0310477946895510e-02  1.5873749966992066e-02  9.2297751489644128e-03  6.7220534694101260e-18  2.2384655030904864e-19  -3.6952312020347680e-03  -7.0043098278103118e-03  -9.9068028455101612e-03  -1.2384025470859797e-02  -1.4419403464549972e-02  -1.5998866434868968e-02  -1.7111274631934178e-02  -1.7748882039819228e-02  -1.7907838822494151e-02  -1.7588736372168470e-02  -1.6797198363411231e-02  -1.5544521352780854e-02  -1.3848368598015704e-02  -1.1733520915005713e-02  -9.2326885523986817e-03  -6.3873882471729114e-03  -3.2488898324495945e-03  1.2076299697445981e-04  3.6476528883742903e-03  7.2448048372660851e-03  1.0810912501321567e-02  1.4228968911748024e-02  1.7364795255723195e-02  2.0065460894265242e-02  2.2157587216149986e-02  2.3445527315232299e-02  2.3709412840709588e-02  2.2703058752596813e-02  2.0151716179184726e-02  1.5749663187357738e-02  9.1576230955347816e-03  -1.5788336337570442e-18  2.2133150372044028e-18  -3.6085251038413943e-03  -6.8399874518942673e-03  -9.6744230453504384e-03  -1.2093576426933253e-02  -1.4081254840632060e-02  -1.5623712375403997e-02  -1.6710066606096401e-02  -1.7332750561569219e-02  -1.7488003081408854e-02  -1.7176400790043237e-02  -1.6403435046308243e-02  -1.5180137341193001e-02  -1.3523756734494767e-02  -1.1458493053914035e-02  -9.0162897338439650e-03  -6.2376903483993829e-03  -3.1727630950513452e-03  1.1790228685356621e-04  3.5621204206998263e-03  7.0749540013891618e-03  1.0557469961881049e-02  1.3895402365680497e-02  1.6957715881772702e-02  1.9595063201873392e-02  2.1638129190409028e-02  2.2895853920510134e-02  2.3153526060525370e-02  2.2170737378119657e-02  1.9679188490958874e-02  1.5380335500419288e-02  8.9428668801220731e-03  1.0842021724855042e-18  -4.0348931924262799e-19  -3.4662978080407759e-03  -6.5704424643124575e-03  -9.2932392249673364e-03  -1.1617136925997687e-02  -1.3526568782531926e-02  -1.5008321456675898e-02  -1.6051934980407342e-02  -1.6650136421530036e-02  -1.6799310371843991e-02  -1.6500009454562585e-02  -1.5757508130654165e-02  -1.4582403161379492e-02  -1.2991264176213246e-02  -1.1007337911223864e-02  -8.6613098257617774e-03  -5.9921269742872901e-03  -3.0478862037108300e-03  1.1320803578539616e-04  3.4218117391464813e-03  6.7963304647306573e-03  1.0141724427747459e-02  1.3348224126153324e-02  1.6289950663310550e-02  1.8823434459396358e-02  2.0786025476565315e-02  2.1994187414676084e-02  2.2241667568746733e-02  2.1297533211712509e-02  1.8904064555697774e-02  1.4774493673394090e-02  8.5905783705116888e-03  -4.1615313205524595e-18  -1.7591167628903888e-19  -3.2719686293054251e-03  -6.2021558075760451e-03  -8.7724167751627394e-03  -1.0966162197739918e-02  -1.2768680593050447e-02  -1.4167486632271388e-02  -1.5152698055025218e-02  -1.5717444197871123e-02  -1.5858309251254952e-02  -1.5575813394595548e-02  -1.4874934970207398e-02  -1.3765676882195278e-02  -1.2263680465158517e-02  -1.0390890164314538e-02  -8.1762725004536508e-03  -5.6565929540900381e-03  -2.8772545876980318e-03  1.0679757140996722e-04  3.2301021447199083e-03  6.4156325316727172e-03  9.5736688032854872e-03  1.2600585306236214e-02  1.5377548573722082e-02  1.7769119707334542e-02  1.9621754849378205e-02  2.0762196673165076e-02  2.0995748958604829e-02  2.0104425308088137e-02  1.7844961977610253e-02  1.3946683824748386e-02  8.1092117522905249e-03  2.7105054312137599e-18  -1.9390658258382177e-19  -3.0303251954273522e-03  -5.7442016879998645e-03  -8.1247881878418540e-03  -1.0156690418556101e-02  -1.1826260413475873e-02  -1.3121918646515511e-02  -1.4034502020887577e-02  -1.4557640906441204e-02  -1.4688168396654738e-02  -1.4426564860517681e-02  -1.3777440775413501e-02  -1.2750060788272793e-02  -1.1358911976273199e-02  -9.6243193593454207e-03  -7.5731118418181894e-03  -5.2393419165944225e-03  -2.6650626418293594e-03  9.8834410013699244e-05  2.9917163316909843e-03  5.9422370827824297e-03  8.8672923810557708e-03  1.1670896706386692e-02  1.4242977557259976e-02  1.6458081738712084e-02  1.8173987973014370e-02  1.9230219440601971e-02  1.9446448909726181e-02  1.8620787865374126e-02  1.6527949568818590e-02  1.2917274494046610e-02  7.5106055107556930e-03  -1.4356645182920978e-18  9.5643435468965120e-19  -2.7475241647582937e-03  -5.2082486275833008e-03  -7.3668541495643678e-03  -9.2093436875825812e-03  -1.0723314048306684e-02  -1.1898246759261766e-02  -1.2725821671514294e-02  -1.3200256781277387e-02  -1.3318677505961192e-02  -1.3081518360927644e-02  -1.2492959765965645e-02  -1.1561402604654806e-02  -1.0299983158063641e-02  -8.7271311109485238e-03  -6.8671734563421722e-03  -4.7509872815888407e-03  -2.4167045908091334e-03  8.9527503791203428e-05  2.7127277120402816e-03  5.3881989339561800e-03  8.0405802073985969e-03  1.0582828201520438e-02  1.2915124030619896e-02  1.4923700913232274e-02  1.6479587829313028e-02  1.7437263723664987e-02  1.7633215819442986e-02  1.6884394108843750e-02  1.4986552051830740e-02  1.1712461196116200e-02  6.8099854420746167e-03  -5.0957502106818716e-18  2.7129698477303301e-19  -2.4310921378720833e-03  -4.6085607241136356e-03  -6.5187847589690436e-03  -8.1493290300437421e-03  -9.4891837690621803e-03  -1.0529019470782922e-02  -1.1261461194795765e-02  -1.1681386247316872e-02  -1.1786248507865079e-02  -1.1576432106280229e-02  -1.1055636797277332e-02  -1.0231297224826552e-02  -9.1150382676653385e-03  -7.7231687514933344e-03  -6.0772159579399621e-03  -4.2045035264200534e-03  -2.1387755160865670e-03  7.9130438028537009e-05  2.4005577840629641e-03  4.7682502963795545e-03  7.1155125483115334e-03  9.3653081610669212e-03  1.1429292293388880e-02  1.3206774741382181e-02  1.4583609842174551e-02  1.5431008971899751e-02  1.5604270557206952e-02  1.4941420852039181e-02  1.3261756036134479e-02  1.0364272546131316e-02  6.0259688810805285e-03  1.4266561804430982e-18  4.4039552215932187e-19  -2.0899268131791961e-03  -3.9619991547683109e-03  -5.6044208791169092e-03  -7.0064394585792195e-03  -8.1585492024598832e-03  -9.0527054647298114e-03  -9.6825553826122845e-03  -1.0043689524686601e-02  -1.0133917588330156e-02  -9.9535703999940831e-03  -9.5058300003473834e-03  -8.7970894519168868e-03  -7.8373440561309484e-03  -6.6406158100893644e-03  -5.2254131105506129e-03  -3.6152278939904120e-03  -1.8390725741002350e-03  6.7940704240332462e-05  2.06