<?xml version="1.0"?>
<VTKFile type="UnstructuredGrid"  version="0.1"  >
<UnstructuredGrid>
<Piece  NumberOfPoints="4225" NumberOfCells="4096">
<Points>
<DataArray  type="Float64"  NumberOfComponents="3"  format="ascii">0 0 0  0.015625 0 0  0.03125 0 0  0.046875 0 0  0.0625 0 0  0.078125 0 0  0.09375 0 0  0.109375 0 0  0.125 0 0  0.140625 0 0  0.15625 0 0  0.171875 0 0  0.1875 0 0  0.203125 0 0  0.21875 0 0  0.234375 0 0  0.25 0 0  0.265625 0 0  0.28125 0 0  0.296875 0 0  0.3125 0 0  0.328125 0 0  0.34375 0 0  0.359375 0 0  0.375 0 0  0.390625 0 0  0.40625 0 0  0.421875 0 0  0.4375 0 0  0.453125 0 0  0.46875 0 0  0.484375 0 0  0.5 0 0  0.515625 0 0  0.53125 0 0  0.546875 0 0  0.5625 0 0  0.578125 0 0  0.59375 0 0  0.609375 0 0  0.625 0 0  0.640625 0 0  0.65625 0 0  0.671875 0 0  0.6875 0 0  0.703125 0 0  0.71875 0 0  0.734375 0 0  0.75 0 0  0.765625 0 0  0.78125 0 0  0.796875 0 0  0.8125 0 0  0.828125 0 0  0.84375 0 0  0.859375 0 0  0.875 0 0  0.890625 0 0  0.90625 0 0  0.921875 0 0  0.9375 0 0  0.953125 0 0  0.96875 0 0  0.984375 0 0  1 0 0  0 0.015625 0  0.015625 0.015625 0  0.03125 0.015625 0  0.046875 0.015625 0  0.0625 0.015625 0  0.078125 0.015625 0  0.09375 0.015625 0  0.109375 0.015625 0  0.125 0.015625 0  0.140625 0.015625 0  0.15625 0.015625 0  0.171875 0.015625 0  0.1875 0.015625 0  0.203125 0.015625 0  0.21875 0.015625 0  0.234375 0.015625 0  0.25 0.015625 0  0.265625 0.015625 0  0.28125 0.015625 0  0.296875 0.015625 0  0.3125 0.015625 0  0.328125 0.015625 0  0.34375 0.015625 0  0.359375 0.015625 0  0.375 0.015625 0  0.390625 0.015625 0  0.40625 0.015625 0  0.421875 0.015625 0  0.4375 0.015625 0  0.453125 0.015625 0  0.46875 0.015625 0  0.484375 0.015625 0  0.5 0.015625 0  0.515625 0.015625 0  0.53125 0.015625 0  0.546875 0.015625 0  0.5625 0.015625 0  0.578125 0.015625 0  0.59375 0.015625 0  0.609375 0.015625 0  0.625 0.015625 0  0.640625 0.015625 0  0.65625 0.015625 0  0.671875 0.015625 0  0.6875 0.015625 0  0.703125 0.015625 0  0.71875 0.015625 0  0.734375 0.015625 0  0.75 0.015625 0  0.765625 0.015625 0  0.78125 0.015625 0  0.796875 0.015625 0  0.8125 0.015625 0  0.828125 0.015625 0  0.84375 0.015625 0  0.859375 0.015625 0  0.875 0.015625 0  0.890625 0.015625 0  0.90625 0.015625 0  0.921875 0.015625 0  0.9375 0.015625 0  0.953125 0.015625 0  0.96875 0.015625 0  0.984375 0.015625 0  1 0.015625 0  0 0.03125 0  0.015625 0.03125 0  0.03125 0.03125 0  0.046875 0.03125 0  0.0625 0.03125 0  0.078125 0.03125 0  0.09375 0.03125 0  0.109375 0.03125 0  0.125 0.03125 0  0.140625 0.03125 0  0.15625 0.03125 0  0.171875 0.03125 0  0.1875 0.03125 0  0.203125 0.03125 0  0.21875 0.03125 0  0.234375 0.03125 0  0.25 0.03125 0  0.265625 0.03125 0  0.28125 0.03125 0  0.296875 0.03125 0  0.3125 0.03125 0  0.328125 0.03125 0  0.34375 0.03125 0  0.359375 0.03125 0  0.375 0.03125 0  0.390625 0.03125 0  0.40625 0.03125 0  0.421875 0.03125 0  0.4375 0.03125 0  0.453125 0.03125 0  0.46875 0.03125 0  0.484375 0.03125 0  0.5 0.03125 0  0.515625 0.03125 0  0.53125 0.03125 0  0.546875 0.03125 0  0.5625 0.03125 0  0.578125 0.03125 0  0.59375 0.03125 0  0.609375 0.03125 0  0.625 0.03125 0  0.640625 0.03125 0  0.65625 0.03125 0  0.671875 0.03125 0  0.6875 0.03125 0  0.703125 0.03125 0  0.71875 0.03125 0  0.734375 0.03125 0  0.75 0.03125 0  0.765625 0.03125 0  0.78125 0.03125 0  0.796875 0.03125 0  0.8125 0.03125 0  0.828125 0.03125 0  0.84375 0.03125 0  0.859375 0.03125 0  0.875 0.03125 0  0.890625 0.03125 0  0.90625 0.03125 0  0.921875 0.03125 0  0.9375 0.03125 0  0.953125 0.03125 0  0.96875 0.03125 0  0.984375 0.03125 0  1 0.03125 0  0 0.046875 0  0.015625 0.046875 0  0.03125 0.046875 0  0.046875 0.046875 0  0.0625 0.046875 0  0.078125 0.046875 0  0.09375 0.046875 0  0.109375 0.046875 0  0.125 0.046875 0  0.140625 0.046875 0  0.15625 0.046875 0  0.171875 0.046875 0  0.1875 0.046875 0  0.203125 0.046875 0  0.21875 0.046875 0  0.234375 0.046875 0  0.25 0.046875 0  0.265625 0.046875 0  0.28125 0.046875 0  0.296875 0.046875 0  0.3125 0.046875 0  0.328125 0.046875 0  0.34375 0.046875 0  0.359375 0.046875 0  0.375 0.046875 0  0.390625 0.046875 0  0.40625 0.046875 0  0.421875 0.046875 0  0.4375 0.046875 0  0.453125 0.046875 0  0.46875 0.046875 0  0.484375 0.046875 0  0.5 0.046875 0  0.515625 0.046875 0  0.53125 0.046875 0  0.546875 0.046875 0  0.5625 0.046875 0  0.578125 0.046875 0  0.59375 0.046875 0  0.609375 0.046875 0  0.625 0.046875 0  0.640625 0.046875 0  0.65625 0.046875 0  0.671875 0.046875 0  0.6875 0.046875 0  0.703125 0.046875 0  0.71875 0.046875 0  0.734375 0.046875 0  0.75 0.046875 0  0.765625 0.046875 0  0.78125 0.046875 0  0.796875 0.046875 0  0.8125 0.046875 0  0.828125 0.046875 0  0.84375 0.046875 0  0.859375 0.046875 0  0.875 0.046875 0  0.890625 0.046875 0  0.90625 0.046875 0  0.921875 0.046875 0  0.9375 0.046875 0  0.953125 0.046875 0  0.96875 0.046875 0  0.984375 0.046875 0  1 0.046875 0  0 0.0625 0  0.015625 0.0625 0  0.03125 0.0625 0  0.046875 0.0625 0  0.0625 0.0625 0  0.078125 0.0625 0  0.09375 0.0625 0  0.109375 0.0625 0  0.125 0.0625 0  0.140625 0.0625 0  0.15625 0.0625 0  0.171875 0.0625 0  0.1875 0.0625 0  0.203125 0.0625 0  0.21875 0.0625 0  0.234375 0.0625 0  0.25 0.0625 0  0.265625 0.0625 0  0.28125 0.0625 0  0.296875 0.0625 0  0.3125 0.0625 0  0.328125 0.0625 0  0.34375 0.0625 0  0.359375 0.0625 0  0.375 0.0625 0  0.390625 0.0625 0  0.40625 0.0625 0  0.421875 0.0625 0  0.4375 0.0625 0  0.453125 0.0625 0  0.46875 0.0625 0  0.484375 0.0625 0  0.5 0.0625 0  0.515625 0.0625 0  0.53125 0.0625 0  0.546875 0.0625 0  0.5625 0.0625 0  0.578125 0.0625 0  0.59375 0.0625 0  0.609375 0.0625 0  0.625 0.0625 0  0.640625 0.0625 0  0.65625 0.0625 0  0.671875 0.0625 0  0.6875 0.0625 0  0.703125 0.0625 0  0.71875 0.0625 0  0.734375 0.0625 0  0.75 0.0625 0  0.765625 0.0625 0  0.78125 0.0625 0  0.796875 0.0625 0  0.8125 0.0625 0  0.828125 0.0625 0  0.84375 0.0625 0  0.859375 0.0625 0  0.875 0.0625 0  0.890625 0.0625 0  0.90625 0.0625 0  0.921875 0.0625 0  0.9375 0.0625 0  0.953125 0.0625 0  0.96875 0.0625 0  0.984375 0.0625 0  1 0.0625 0  0 0.078125 0  0.015625 0.078125 0  0.03125 0.078125 0  0.046875 0.078125 0  0.0625 0.078125 0  0.078125 0.078125 0  0.09375 0.078125 0  0.109375 0.078125 0  0.125 0.078125 0  0.140625 0.078125 0  0.15625 0.078125 0  0.171875 0.078125 0  0.1875 0.078125 0  0.203125 0.078125 0  0.21875 0.078125 0  0.234375 0.078125 0  0.25 0.078125 0  0.265625 0.078125 0  0.28125 0.078125 0  0.296875 0.078125 0  0.3125 0.078125 0  0.328125 0.078125 0  0.34375 0.078125 0  0.359375 0.078125 0  0.375 0.078125 0  0.390625 0.078125 0  0.40625 0.078125 0  0.421875 0.078125 0  0.4375 0.078125 0  0.453125 0.078125 0  0.46875 0.078125 0  0.484375 0.078125 0  0.5 0.078125 0  0.515625 0.078125 0  0.53125 0.078125 0  0.546875 0.078125 0  0.5625 0.078125 0  0.578125 0.078125 0  0.59375 0.078125 0  0.609375 0.078125 0  0.625 0.078125 0  0.640625 0.078125 0  0.65625 0.078125 0  0.671875 0.078125 0  0.6875 0.078125 0  0.703125 0.078125 0  0.71875 0.078125 0  0.734375 0.078125 0  0.75 0.078125 0  0.765625 0.078125 0  0.78125 0.078125 0  0.796875 0.078125 0  0.8125 0.078125 0  0.828125 0.078125 0  0.84375 0.078125 0  0.859375 0.078125 0  0.875 0.078125 0  0.890625 0.078125 0  0.90625 0.078125 0  0.921875 0.078125 0  0.9375 0.078125 0  0.953125 0.078125 0  0.96875 0.078125 0  0.984375 0.078125 0  1 0.078125 0  0 0.09375 0  0.015625 0.09375 0  0.03125 0.09375 0  0.046875 0.09375 0  0.0625 0.09375 0  0.078125 0.09375 0  0.09375 0.09375 0  0.109375 0.09375 0  0.125 0.09375 0  0.140625 0.09375 0  0.15625 0.09375 0  0.171875 0.09375 0  0.1875 0.09375 0  0.203125 0.09375 0  0.21875 0.09375 0  0.234375 0.09375 0  0.25 0.09375 0  0.265625 0.09375 0  0.28125 0.09375 0  0.296875 0.09375 0  0.3125 0.09375 0  0.328125 0.09375 0  0.34375 0.09375 0  0.359375 0.09375 0  0.375 0.09375 0  0.390625 0.09375 0  0.40625 0.09375 0  0.421875 0.09375 0  0.4375 0.09375 0  0.453125 0.09375 0  0.46875 0.09375 0  0.484375 0.09375 0  0.5 0.09375 0  0.515625 0.09375 0  0.53125 0.09375 0  0.546875 0.09375 0  0.5625 0.09375 0  0.578125 0.09375 0  0.59375 0.09375 0  0.609375 0.09375 0  0.625 0.09375 0  0.640625 0.09375 0  0.65625 0.09375 0  0.671875 0.09375 0  0.6875 0.09375 0  0.703125 0.09375 0  0.71875 0.09375 0  0.734375 0.09375 0  0.75 0.09375 0  0.765625 0.09375 0  0.78125 0.09375 0  0.796875 0.09375 0  0.8125 0.09375 0  0.828125 0.09375 0  0.84375 0.09375 0  0.859375 0.09375 0  0.875 0.09375 0  0.890625 0.09375 0  0.90625 0.09375 0  0.921875 0.09375 0  0.9375 0.09375 0  0.953125 0.09375 0  0.96875 0.09375 0  0.984375 0.09375 0  1 0.09375 0  0 0.109375 0  0.015625 0.109375 0  0.03125 0.109375 0  0.046875 0.109375 0  0.0625 0.109375 0  0.078125 0.109375 0  0.09375 0.109375 0  0.109375 0.109375 0  0.125 0.109375 0  0.140625 0.109375 0  0.15625 0.109375 0  0.171875 0.109375 0  0.1875 0.109375 0  0.203125 0.109375 0  0.21875 0.109375 0  0.234375 0.109375 0  0.25 0.109375 0  0.265625 0.109375 0  0.28125 0.109375 0  0.296875 0.109375 0  0.3125 0.109375 0  0.328125 0.109375 0  0.34375 0.109375 0  0.359375 0.109375 0  0.375 0.109375 0  0.390625 0.109375 0  0.40625 0.109375 0  0.421875 0.109375 0  0.4375 0.109375 0  0.453125 0.109375 0  0.46875 0.109375 0  0.484375 0.109375 0  0.5 0.109375 0  0.515625 0.109375 0  0.53125 0.109375 0  0.546875 0.109375 0  0.5625 0.109375 0  0.578125 0.109375 0  0.59375 0.109375 0  0.609375 0.109375 0  0.625 0.109375 0  0.640625 0.109375 0  0.65625 0.109375 0  0.671875 0.109375 0  0.6875 0.109375 0  0.703125 0.109375 0  0.71875 0.109375 0  0.734375 0.109375 0  0.75 0.109375 0  0.765625 0.109375 0  0.78125 0.109375 0  0.796875 0.109375 0  0.8125 0.109375 0  0.828125 0.109375 0  0.84375 0.109375 0  0.859375 0.109375 0  0.875 0.109375 0  0.890625 0.109375 0  0.90625 0.109375 0  0.921875 0.109375 0  0.9375 0.109375 0  0.953125 0.109375 0  0.96875 0.109375 0  0.984375 0.109375 0  1 0.109375 0  0 0.125 0  0.015625 0.125 0  0.03125 0.125 0  0.046875 0.125 0  0.0625 0.125 0  0.078125 0.125 0  0.09375 0.125 0  0.109375 0.125 0  0.125 0.12
[...]
<PointData  Scalars="u_sol"> 
<DataArray  type="Float64"  Name="u_sol"  format="ascii">-9.7381503381540755e-09  4.8732192522234733e-08  2.1988444658084391e-07  4.9770992811756355e-07  8.7631239611649853e-07  1.3495649034295374e-06  1.9112097823347188e-06  2.5548407675001190e-06  3.2739175319952089e-06  4.0617724127022683e-06  4.9116201473618635e-06  5.8165677627961797e-06  6.7696254251850282e-06  7.7637180793741285e-06  8.7916979699572088e-06  9.8463580670909399e-06  1.0920446440476635e-05  1.2006681620976387e-05  1.3097768992325987e-05  1.4186418256294011e-05  1.5265362016350369e-05  1.6327375526234889e-05  1.7365297651643073e-05  1.8372053094496477e-05  1.9340675931375868e-05  2.0264334518959971e-05  2.1136357821366726e-05  2.1950263216083903e-05  2.2699785836823976e-05  2.3378909513798204e-05  2.3981899373826369e-05  2.4503336164536314e-05  2.4938152369390370e-05  2.5281670181914335e-05  2.5529641410167084e-05  2.5678289384544465e-05  2.5724352944398489e-05  2.5665132581282862e-05  2.5498538819324603e-05  2.5223142915384123e-05  2.4838229964947745e-05  2.4343854501494557e-05  2.3740898680703120e-05  2.3031133143213370e-05  2.2217280652769150e-05  2.1303082609440196e-05  2.0293368541050183e-05  1.9194128678665091e-05  1.8012589725680584e-05  1.6757293933119732e-05  1.5438181597421545e-05  1.4066677100308778e-05  1.2655778614596679e-05  1.1220151601173854e-05  9.7762262358164551e-06  8.3422988707769876e-06  6.9386377857671943e-06  5.5875929311074152e-06  4.3137114797175840e-06  3.1438530484437026e-06  2.1073283829199193e-06  1.2359731429446292e-06  5.6448784038542730e-07  1.2980973095572328e-07  -2.5886904348530299e-08  -1.2090269840404764e-06  6.0502785799877283e-06  2.7299462664871540e-05  6.1792515834093925e-05  1.0879740476013174e-04  1.6755344259200767e-04  2.3728371717683230e-04  3.1719286670801687e-04  4.0646888542799524e-04  5.0428395842057772e-04  6.0979567044647525e-04  7.2214823363085494e-04  8.4047383453321001e-04  9.6389407921048970e-04  1.0915215477457156e-03  1.2224614611088074e-03  1.3558134657275743e-03  1.4906735406855951e-03  1.6261360328050963e-03  1.7612958250060758e-03  1.8952506435283816e-03  2.0271035097888732e-03  2.1559653428414182e-03  2.2809577186072038e-03  2.4012157922492739e-03  2.5158913902771085e-03  2.6241562791857478e-03  2.7252056176587497e-03  2.8182615995955549e-03  2.9025772954620814e-03  2.9774406997086686e-03  3.0421789922514008e-03  3.0961630222727391e-03  3.1388120228641224e-03  3.1695985653081107e-03  3.1880537620805590e-03  3.1937727279437904e-03  3.1864203088010764e-03  3.1657370882901071e-03  3.1315456824099921e-03  3.0837573328020827e-03  3.0223788096381521e-03  2.9475196354156060e-03  2.8593996413114270e-03  2.7583568681117990e-03  2.6448558241068750e-03  2.5194961127261131e-03  2.3830214430835342e-03  2.2363290370096042e-03  2.0804794465618570e-03  1.9167067964428546e-03  1.7464294661685672e-03  1.5712612273829612e-03  1.3930228518115335e-03  1.2137542072021702e-03  1.0357268539578602e-03  8.6145717484126759e-04  6.9371999911188760e-04  5.3556294996695921e-04  3.9032074842416042e-04  2.6163242511862772e-04  1.5345051900393650e-04  7.0083109386896798e-05  1.6116365505842602e-05  -3.2139508299607165e-06  -2.2939367731267878e-06  1.1479443105151546e-05  5.1796396796566880e-05  1.1724148959717763e-04  2.0642580460590931e-04  3.1790605918090244e-04  4.5020818581315171e-04  6.0182311171149490e-04  7.7121018483739640e-04  9.5679875779368395e-04  1.1569904813927554e-03  1.3701616339997771e-03  1.5946656773821082e-03  1.8288359984867169e-03  2.0709888589105856e-03  2.3194265575038299e-03  2.5724408163090582e-03  2.8283163991658171e-03  3.0853349729566540e-03  3.3417792217237405e-03  3.5959372242558535e-03  3.8461071060978142e-03  4.0906019773048474e-03  4.3277551676440627e-03  4.5559257713360946e-03  4.7735045138329367e-03  4.9789199535420171e-03  5.1706450318334757e-03  5.3472039851065710e-03  5.5071796331428889e-03  5.6492210584394480e-03  5.7720516916931093e-03  5.8744778191001804e-03  5.9553975276420536e-03  6.0138101050487601e-03  6.0488259116690864e-03  6.0596767420273865e-03  6.0457266944148403e-03  6.0064835674468534e-03  5.9416108031188275e-03  5.8509399965093025e-03  5.7344839929159086e-03  5.5924505938606149e-03  5.4252568940737281e-03  5.2335442722551348e-03  5.0181940591214457e-03  4.7803439069767327e-03  4.5214048857944323e-03  4.2430793315694259e-03  3.9473794734880743e-03  3.6366468672919343e-03  3.3135726629974155e-03  2.9812187361822474e-03  2.6430397122329547e-03  2.3029059164718577e-03  1.9651272742596659e-03  1.6344782225318332e-03  1.3162235593986334e-03  1.0161456661893669e-03  7.4057164664708222e-04  4.9640598370329656e-04  2.9114799264371875e-04  1.3297156796604511e-04  3.0578244075603788e-05  -6.0979611704688483e-06  -3.2683332785078491e-06  1.6355571067291049e-05  7.3797974390749278e-05  1.6704220720962853e-04  2.9410938174353611e-04  4.5294315156212247e-04  6.4144330883099605e-04  8.5745977124323722e-04  1.0987974633201109e-03  1.3632185730921256e-03  1.6484458199056387e-03  1.9521657732011119e-03  2.2720324940108472e-03  2.6056714413612374e-03  2.9506836745899338e-03  3.3046503593280353e-03  3.6651375916853654e-03  4.0297015539298665e-03  4.3958940158758814e-03  4.7612681965549233e-03  5.1233850012714936e-03  5.4798196496479564e-03  5.8281687107907508e-03  6.1660575622504987e-03  6.4911482900062017e-03  6.8011480472771196e-03  7.0938178905563497e-03  7.3669821118681434e-03  7.6185380868761662e-03  7.8464666591142890e-03  8.0488430812735573e-03  8.2238485351614279e-03  8.3697822526505490e-03  8.4850742606567206e-03  8.5682987739285985e-03  8.6181882601952288e-03  8.6336482030049295e-03  8.6137725883964986e-03  8.5578601423764861e-03  8.4654313470310053e-03  8.3362462639812868e-03  8.1703231947954976e-03  7.9679582089011818e-03  7.7297455704975274e-03  7.4565990969510882e-03  7.1497744821688606e-03  6.8108926194818892e-03  6.4419639596406024e-03  6.0454139406223226e-03  5.6241095270754280e-03  5.1813868984033644e-03  4.7210803256136904e-03  4.2475522785499877e-03  3.7657248053870000e-03  3.2811122312889117e-03  2.7998552105646148e-03  2.3287562198771616e-03  1.8753163879820520e-03  1.4477742808737194e-03  1.0551445688631383e-03  7.0726455509299716e-04  4.1481904179426193e-04  1.8945395296650659e-04  4.3566976054934463e-05  -8.6881944181627048e-06  -4.1358531222985525e-06  2.0696861024503774e-05  9.3386309382848798e-05  2.1138053406654319e-04  3.7217538738898524e-04  5.7316870299304224e-04  8.1170281091101778e-04  1.0850569284264117e-03  1.3904533370373863e-03  1.7250602381318582e-03  2.0859958881748854e-03  2.4703327983955836e-03  2.8751023428535850e-03  3.2972997017237794e-03  3.7338891790411012e-03  4.1818099047127343e-03  4.6379819391944308e-03  5.0993127976503390e-03  5.5627044115837063e-03  6.0250605463809306e-03  6.4832946938798569e-03  6.9343384597085490e-03  7.3751504658084886e-03  7.8027257892405912e-03  8.2141059590773793e-03  8.6063895339104669e-03  8.9767432832501097e-03  9.3224139968618135e-03  9.6407409468774394e-03  9.9291690283326017e-03  1.0185262604620637e-02  1.0406720085216325e-02  1.0591389263911049e-02  1.0737283446713607e-02  1.0842598399512316e-02  1.0905730146560204e-02  1.0925293651840471e-02  1.0900142416392740e-02  1.0829389025732977e-02  1.0712426682583405e-02  1.0548951761240493e-02  1.0338987421055643e-02  1.0082908317678954e-02  9.7814664519273089e-03  9.4358181973818803e-03  9.0475525490995509e-03  8.6187206371373688e-03  8.1518665499406111e-03  7.6500595140361095e-03  7.1169274778945047e-03  6.5566921493174094e-03  5.9742055371240421e-03  5.3749880498022741e-03  4.7652682041198083e-03  4.1520240030444898e-03  3.5430260264200826e-03  2.9468823451949525e-03  2.3730851269366735e-03  1.8320597157699841e-03  1.3352135629407873e-03  8.9499510539301278e-04  5.2492523255363768e-04  2.3974106751693618e-04  5.5131039195107986e-05  -1.0994317949716541e-05  -4.9001943261967607e-06  2.4521818826621143e-05  1.1064490197369912e-04  2.5044547347085656e-04  4.4095659759160369e-04  6.7909520525425934e-04  9.6171246621501417e-04  1.2855847737071528e-03  1.6474210629609800e-03  2.0438661946350161e-03  2.4715058542218709e-03  2.9268715278732865e-03  3.4064459620761108e-03  3.9066690204974039e-03  4.4239439844928003e-03  4.9546443088980402e-03  5.4951208549003589e-03  6.0417096199175280e-03  6.5907399857962467e-03  7.1385435071808414e-03  7.6814632626949243e-03  8.2158637923318359e-03  8.7381416452402515e-03  9.2447365629027400e-03  9.7321433235399019e-03  1.0196924274432929e-02  1.0635722579742758e-02  1.1045276212314584e-02  1.1422432718895479e-02  1.1764164789156640e-02  1.2067586659907091e-02  1.2329971386906514e-02  1.2548769017737611e-02  1.2721625700281304e-02  1.2846403762451577e-02  1.2921202799992091e-02  1.2944381810317280e-02  1.2914582411591031e-02  1.2830753187485496e-02  1.2692175199342820e-02  1.2498488708784349e-02  1.2249721155165530e-02  1.1946316433671313e-02  1.1589165521279339e-02  1.1179638499293241e-02  1.0719618022662579e-02  1.0211534287864985e-02  9.6584015527262611e-03  9.0638562632023231e-03  8.4321968438319846e-03  7.7684252103374669e-03  7.0782900645302849e-03  6.3683320339198999e-03  5.6459307188147737e-03  4.9193537172325221e-03  4.1978076790949864e-03  3.4914915209821812e-03  2.8116516447327950e-03  2.1706400877664006e-03  1.5819724964111870e-03  1.0603978857698084e-03  6.2193592171846208e-04  2.8404727429490553e-04  6.5319728150856264e-05  -1.3026162224190953e-05  -5.5650384618340121e-06  2.7848867991289567e-05  1.2565688095008483e-04  2.8442518798283502e-04  5.0078430812407193e-04  7.7123287041069768e-04  1.0921948204345062e-03  1.4600091818037853e-03  1.8709383676231224e-03  2.3211720229801940e-03  2.8068325890900007e-03  3.3239809542254264e-03  3.8686226541457119e-03  4.4367145235802820e-03  5.0241718515704461e-03  5.6268760538655694e-03  6.2406828871276925e-03  6.8614312275764510e-03  7.4849524382775059e-03  8.1070803498900449e-03  8.7236618805885471e-03  9.3305683217286897e-03  9.9237073167253408e-03  1.0499035561532487e-02  1.1052572256061837e-02  1.1580413336855491e-02  1.2078746522331365e-02  1.2543867202956431e-02  1.2972195209766958e-02  1.3360292495751729e-02  1.3704881765742253e-02  1.4002866091615263e-02  1.4251349550807648e-02  1.4447658927373432e-02  1.4589366516077324e-02  1.4674314071321524e-02  1.4700637944039906e-02  1.4666795451072776e-02  1.4571592522949789e-02  1.4414212677467564e-02  1.4194247367943938e-02  1.3911727756573662e-02  1.3567157964892248e-02  1.3161549854983868e-02  1.2696459396742346e-02  1.2174024678216093e-02  1.1597005617836078e-02  1.0968825439144306e-02  1.0293613970511968e-02  9.5762528342497460e-03  8.8224225915201262e-03  8.0386519113718070e-03  7.2323688347581717e-03  6.4119542048489478e-03  5.5867973434915764e-03  4.7673540322826034e-03  3.9652069473335282e-03  3.1931283697589990e-03  2.4651462256489072e-03  1.7966099250430879e-03  1.2042695865742620e-03  7.0631837780677029e-04  3.2258598151471707e-04  7.4182118597270407e-05  -1.4793513970596838e-05  -6.1340715103726416e-06  3.0696454107523732e-05  1.3850547464436703e-04  3.1350806549264694e-04  5.5199021147717413e-04  8.5009252148467173e-04  1.2038732844660471e-03  1.6092971839980329e-03  2.0622444596257181e-03  2.5585151422512493e-03  3.0938351872208040e-03  3.6638627030711516e-03  4.2641947859603947e-03  4.8903748512745693e-03  5.5379005206120076e-03  6.2022320786911927e-03  6.8788015274679386e-03  7.5630222624072452e-03  8.2502993975886504e-03  8.9360407669977042e-03  9.6156686303485242e-03  1.0284632112723879e-02  1.0938420408310169e-02  1.1572576779518715e-02  1.2182713383831605e-02  1.2764526961785400e-02  1.3313815420615065e-02  1.3826495349220844e-02  1.4298620501294169e-02  1.4726401284648024e-02  1.5106225296040370e-02  1.5434678942058959e-02  1.5708570187953293e-02  1.5924952477654707e-02  1.6081149869619744e-02  1.6174783434567019e-02  1.6203798962653171e-02  1.6166496029151801e-02  1.6061558469260589e-02  1.5888086314266945e-02  1.5645629242954904e-02  1.5334221603832299e-02  1.4954419065503752e-02  1.4507336954309277e-02  1.3994690340193731e-02  1.3418835933668010e-02  1.2782815858673960e-02  1.2090403368168214e-02  1.1346150571302595e-02  1.0555438243189023e-02  9.7245277904484707e-03  8.8606154478490778e-03  7.9718887841415172e-03  7.0675855956909795e-03  6.1580552759287512e-03  5.2548227250606610e-03  4.3706549643618827e-03  3.5196302588877920e-03  2.7172109101136913e-03  1.9803158270195044e-03  1.3274078515546654e-03  7.7854042829067157e-04  3.5557085292340837e-04  8.1767344732733304e-05  -1.6306171615782253e-05  -6.6109782724765999e-06  3.3083016854606633e-05  1.4927388473676798e-04  3.3788243355219324e-04  5.9490589390242827e-04  9.1618481787614551e-04  1.2974710374815367e-03  1.7344155018001706e-03  2.2225781506011143e-03  2.7574324790210292e-03  3.3343721474826515e-03  3.9487176947093916e-03  4.5957239035136436e-03  5.2705877024145573e-03  5.9684566658120457e-03  6.6844381283941373e-03  7.4136089431845213e-03  8.1510259101156852e-03  8.8917369038803047e-03  9.6307927305406948e-03  1.0363259743444438e-02  1.1084233250010690e-02  1.1788851742017055e-02  1.2472311983113091e-02  1.3129884988411155e-02  1.3756932932166906e-02  1.4348927020755279e-02  1.4901466369376899e-02  1.5410297922195568e-02  1.5871337456909614e-02  1.6280691716099978e-02  1.6634681709077906e-02  1.6929867229374011e-02  1.7163072634471806e-02  1.7331413935891150e-02  1.7432327249273506e-02  1.7463598655711683e-02  1.7423395527202418e-02  1.7310299370783128e-02  1.7123340247644919e-02  1.6862032825292448e-02  1.6526414122652777e-02  1.6117083009913984e-02  1.5635241526811495e-02  1.5082738085064806e-02  1.4462112622715394e-02  1.3776643780213487e-02  1.3030398170265321e-02  1.2228281815672030e-02  1.1376093831666854e-02  1.0480582431640999e-02  9.5495033374173935e-03  8.5916806782528436e-03  7.6170704632788503e-03  6.6368267222473316e-03  5.6633703840289363e-03  4.7104610699695484e-03  3.7932715906843434e-03  2.9284663981047785e-03  2.1342797987483710e-03  1.4306100684699698e-03  8.3906975054272553e-04  3.8321548359664126e-04  8.8124525063876816e-05  -1.7573930445982752e-05  -6.9994438657916722e-06  3.5026997498790625e-05  1.5804532006155749e-04  3.5773663590784081e-04  6.2986297016029349e-04  9.7002046288694886e-04  1.3737113208203196e-03  1.8363309398184765e-03  2.3531783586620268e-03  2.9194610919600276e-03  3.5303021284730203e-03  4.1807470385896647e-03  4.8657717729339110e-03  5.5802910282867066e-03  6.3191672472353412e-03  7.0772202681482323e-03  7.8492376566107816e-03  8.6299857467868942e-03  9.4142214231489694e-03  1.0196704673788108e-02  1.0972211947648337e-02  1.1735550349103185e-02  1.2481572704423198e-02  1.3205193535840985e-02  1.3901405980113329e-02  1.4565299689708147e-02  1.5192079756008430e-02  1.5777086695227076e-02  1.6315817539064890e-02  1.6803948073525043e-02  1.7237356270713943e-02  1.7612146959921211e-02  1.7924677785772527e-02  1.8171586502797300e-02  1.8349819657343031e-02  1.8456662709406692e-02  1.8489771648635588e-02  1.8447206160485105e-02  1.8327464400299597e-02  1.8129519434916763e-02  1.7852857413279515e-02  1.7497517529475065e-02  1.7064133843615669e-02  1.6553979028019028e-02  1.5969010108256170e-02  1.5311916270793086e-02  1.4586168811183313e-02  1.3796073299049402e-02  1.2946824038448693e-02  1.2044560904624123e-02  1.1096428640665802e-02  1.0110638700011111e-02  9.0965337239103730e-03  8.0646547435457919e-03  7.0268112072441819e-03  5.9961539063127251e-03  4.9872509870101597e-03  4.0161668248102113e-03  3.1005450863309247e-03  2.2596915384553470e-03  1.5146736933176962e-03  8.8837406191832869e-04  4.0573348691777181e-04  9.3302782268851403e-05  -1.8606586583941184e-05  -7.3031533233533745e-06  3.6546836882475082e-05  1.6490298754338726e-04  3.7325901198223511e-04  6.5719304739853327e-04  1.0121101480935579e-03  1.4333173592152861e-03  1.9160102804604408e-03  2.4552839734698437e-03  3.0461380044384881e-03  3.6834837461008811e-03  4.3621517936054139e-03  5.0769001015073829e-03  5.8224227126922583e-03  6.5933591485236170e-03  7.3843044775346338e-03  8.1898200951488042e-03  9.0044452441305611e-03  9.8227093075289942e-03  1.0639144906681136e-02  1.1448301838021717e-02  1.2244761883568388e-02  1.3023154531129491e-02  1.3778173641490744e-02  1.4504595101081373e-02  1.5197295499901699e-02  1.5851271875814015e-02  1.6461662567655293e-02  1.7023769221029546e-02  1.7533079992074676e-02  1.7985293995980908e-02  1.8376347048560646e-02  1.8702438750738549e-02  1.8960060967443588e-02  1.9146027754046582e-02  1.9257506785192287e-02  1.9292052342636045e-02  1.9247639920498130e-02  1.9122702508211579e-02  1.8916168613348928e-02  1.8627502088478833e-02  1.8256743828226479e-02  1.7804555404787505e-02  1.7272264712283752e-02  1.6661913692542642e-02  1.5976308217144224e-02  1.5219070202894893e-02  1.4394692040279820e-02  1.3508593416894558e-02  1.2567180620373689e-02  1.1577908407964610e-02  1.0549344532403424e-02  9.4912370170863129e-03  8.4145842741161232e-03  7.3317081700231424e-03  6.2563301158796636e-03  5.2036503774575910e-03  4.1904303718741879e-03  3.2350793336076637e-03  2.3577407167366905e-03  1.5803961635611314e-03  9.2692106891457753e-04  4.2333847129424977e-04  9.7351237899251565e-05  -1.9413935925848095e-05  -7.5257917009711207e-06  3.7660975962077215e-05  1.6993009462113262e-04  3.8463790236327466e-04  6.7722773481710232e-04  1.0429645682338755e-03  1.4770123818772464e-03  1.9744203121205011e-03  2.5301338923590599e-03  3.1390002493476687e-03  3.7957756277899055e-03  4.4951330322881514e-03  5.2316706123952880e-03  5.9999206576411982e-03  6.7943592739414926e-03  7.6094167592346716e-03  8.4394887118243844e-03  9.2789479020325295e-03  1.0122156939894973e-02  1.0963481772459012e-02  1.1797306045458599e-02  1.2618046365298867e-02  1.3420168498496612e-02  1.4198204546968296e-02  1.4946771138840253e-02  1.5660588675775720e-02  1.6334501679173403e-02  1.6963500278991045e-02  1.7542742890387784e-02  1.8067580124862391e-02  1.8533579984089395e-02  1.8936554386225806e-02  1.9272587076077506e-02  1.9538062972177413e-02  1.9729699005536665e-02  1.9844576506593950e-02  1.9880175198694457e-02  1.9834408858296300e-02  1.9705662704015185e-02  1.9492832578589511e-02  1.9195365989872551e-02  1.8813305079042653e-02  1.8347331586361787e-02  1.7798813887015288e-02  1.7169856171830124e-02  1.6463349849991652e-02  1.5683027253276232e-02  1.4833517723770603e-02  1.3920406169581994e-02  1.2950294175631163e-02  1.1930863759333592e-02  1.0870943863558462e-02  9.7805796826945218e-03  8.6711049182543604e-03  7.5552170720120789e-03  6.4470558557324087e-03  5.3622849191058896e-03  4.3181766552151833e-03  3.3337015085730310e-03  2.4296170113438016e-03  1.6285749214640269e-03  9.5517848084196097e-04  4.3624404642961576e-04  1.0031901379928626e-04  -2.0005774427040520e-05  -7.6710440482759011e-06  3.8387855662981127e-05  1.7320984859493788e-04  3.9206164732591647e-04  6.9029864106676586e-04  1.0630944172020308e-03  1.5055196168245761e-03  2.0125278216019658e-03  2.5789670106285984e-03  3.1995848570572330e-03  3.8690363979190169e-03  4.5818918235687204e-03  5.3326450245736430e-03  6.1157227603499866e-03  6.9254945223319502e-03  7.7562831098648751e-03  8.6023759529443872e-03  9.4580372129989751e-03  1.0317520695078420e-02  1.1175083605656087e-02  1.2025001191491290e-02  1.2861582296177614e-02  1.3679185872240046e-02  1.4472238487914499e-02  1.5235252869049039e-02  1.5962847517913555e-02  1.6649767452090125e-02  1.7290906108040995e-02  1.7881328455422247e-02  1.8416295369719012e-02  1.8891289312336332e-02  1.9302041368878513e-02  1.9644559697997964e-02  1.9915159444889231e-02  2.0110494175248048e-02  2.0227588887309279e-02  2.0263874661423275e-02  2.0217225008529124e-02  2.0085993980834351e-02  1.9869056110020735e-02  1.9565848240358230e-02  1.9176413326233165e-02  1.8701446265779700e-02  1.8142341844546092e-02  1.7501244865435663e-02  1.6781102543532978e-02  1.5985719246863844e-02  1.5119813666644425e-02  1.41890785031532