<?xml version="1.0"?>
<VTKFile type="UnstructuredGrid"  version="0.1"  >
<UnstructuredGrid>
<Piece  NumberOfPoints="4225" NumberOfCells="4096">
<Points>
<DataArray  type="Float64"  NumberOfComponents="3"  format="ascii">0 0 0  0.015625 0 0  0.03125 0 0  0.046875 0 0  0.0625 0 0  0.078125 0 0  0.09375 0 0  0.109375 0 0  0.125 0 0  0.140625 0 0  0.15625 0 0  0.171875 0 0  0.1875 0 0  0.203125 0 0  0.21875 0 0  0.234375 0 0  0.25 0 0  0.265625 0 0  0.28125 0 0  0.296875 0 0  0.3125 0 0  0.328125 0 0  0.34375 0 0  0.359375 0 0  0.375 0 0  0.390625 0 0  0.40625 0 0  0.421875 0 0  0.4375 0 0  0.453125 0 0  0.46875 0 0  0.484375 0 0  0.5 0 0  0.515625 0 0  0.53125 0 0  0.546875 0 0  0.5625 0 0  0.578125 0 0  0.59375 0 0  0.609375 0 0  0.625 0 0  0.640625 0 0  0.65625 0 0  0.671875 0 0  0.6875 0 0  0.703125 0 0  0.71875 0 0  0.734375 0 0  0.75 0 0  0.765625 0 0  0.78125 0 0  0.796875 0 0  0.8125 0 0  0.828125 0 0  0.84375 0 0  0.859375 0 0  0.875 0 0  0.890625 0 0  0.90625 0 0  0.921875 0 0  0.9375 0 0  0.953125 0 0  0.96875 0 0  0.984375 0 0  1 0 0  0 0.015625 0  0.015625 0.015625 0  0.03125 0.015625 0  0.046875 0.015625 0  0.0625 0.015625 0  0.078125 0.015625 0  0.09375 0.015625 0  0.109375 0.015625 0  0.125 0.015625 0  0.140625 0.015625 0  0.15625 0.015625 0  0.171875 0.015625 0  0.1875 0.015625 0  0.203125 0.015625 0  0.21875 0.015625 0  0.234375 0.015625 0  0.25 0.015625 0  0.265625 0.015625 0  0.28125 0.015625 0  0.296875 0.015625 0  0.3125 0.015625 0  0.328125 0.015625 0  0.34375 0.015625 0  0.359375 0.015625 0  0.375 0.015625 0  0.390625 0.015625 0  0.40625 0.015625 0  0.421875 0.015625 0  0.4375 0.015625 0  0.453125 0.015625 0  0.46875 0.015625 0  0.484375 0.015625 0  0.5 0.015625 0  0.515625 0.015625 0  0.53125 0.015625 0  0.546875 0.015625 0  0.5625 0.015625 0  0.578125 0.015625 0  0.59375 0.015625 0  0.609375 0.015625 0  0.625 0.015625 0  0.640625 0.015625 0  0.65625 0.015625 0  0.671875 0.015625 0  0.6875 0.015625 0  0.703125 0.015625 0  0.71875 0.015625 0  0.734375 0.015625 0  0.75 0.015625 0  0.765625 0.015625 0  0.78125 0.015625 0  0.796875 0.015625 0  0.8125 0.015625 0  0.828125 0.015625 0  0.84375 0.015625 0  0.859375 0.015625 0  0.875 0.015625 0  0.890625 0.015625 0  0.90625 0.015625 0  0.921875 0.015625 0  0.9375 0.015625 0  0.953125 0.015625 0  0.96875 0.015625 0  0.984375 0.015625 0  1 0.015625 0  0 0.03125 0  0.015625 0.03125 0  0.03125 0.03125 0  0.046875 0.03125 0  0.0625 0.03125 0  0.078125 0.03125 0  0.09375 0.03125 0  0.109375 0.03125 0  0.125 0.03125 0  0.140625 0.03125 0  0.15625 0.03125 0  0.171875 0.03125 0  0.1875 0.03125 0  0.203125 0.03125 0  0.21875 0.03125 0  0.234375 0.03125 0  0.25 0.03125 0  0.265625 0.03125 0  0.28125 0.03125 0  0.296875 0.03125 0  0.3125 0.03125 0  0.328125 0.03125 0  0.34375 0.03125 0  0.359375 0.03125 0  0.375 0.03125 0  0.390625 0.03125 0  0.40625 0.03125 0  0.421875 0.03125 0  0.4375 0.03125 0  0.453125 0.03125 0  0.46875 0.03125 0  0.484375 0.03125 0  0.5 0.03125 0  0.515625 0.03125 0  0.53125 0.03125 0  0.546875 0.03125 0  0.5625 0.03125 0  0.578125 0.03125 0  0.59375 0.03125 0  0.609375 0.03125 0  0.625 0.03125 0  0.640625 0.03125 0  0.65625 0.03125 0  0.671875 0.03125 0  0.6875 0.03125 0  0.703125 0.03125 0  0.71875 0.03125 0  0.734375 0.03125 0  0.75 0.03125 0  0.765625 0.03125 0  0.78125 0.03125 0  0.796875 0.03125 0  0.8125 0.03125 0  0.828125 0.03125 0  0.84375 0.03125 0  0.859375 0.03125 0  0.875 0.03125 0  0.890625 0.03125 0  0.90625 0.03125 0  0.921875 0.03125 0  0.9375 0.03125 0  0.953125 0.03125 0  0.96875 0.03125 0  0.984375 0.03125 0  1 0.03125 0  0 0.046875 0  0.015625 0.046875 0  0.03125 0.046875 0  0.046875 0.046875 0  0.0625 0.046875 0  0.078125 0.046875 0  0.09375 0.046875 0  0.109375 0.046875 0  0.125 0.046875 0  0.140625 0.046875 0  0.15625 0.046875 0  0.171875 0.046875 0  0.1875 0.046875 0  0.203125 0.046875 0  0.21875 0.046875 0  0.234375 0.046875 0  0.25 0.046875 0  0.265625 0.046875 0  0.28125 0.046875 0  0.296875 0.046875 0  0.3125 0.046875 0  0.328125 0.046875 0  0.34375 0.046875 0  0.359375 0.046875 0  0.375 0.046875 0  0.390625 0.046875 0  0.40625 0.046875 0  0.421875 0.046875 0  0.4375 0.046875 0  0.453125 0.046875 0  0.46875 0.046875 0  0.484375 0.046875 0  0.5 0.046875 0  0.515625 0.046875 0  0.53125 0.046875 0  0.546875 0.046875 0  0.5625 0.046875 0  0.578125 0.046875 0  0.59375 0.046875 0  0.609375 0.046875 0  0.625 0.046875 0  0.640625 0.046875 0  0.65625 0.046875 0  0.671875 0.046875 0  0.6875 0.046875 0  0.703125 0.046875 0  0.71875 0.046875 0  0.734375 0.046875 0  0.75 0.046875 0  0.765625 0.046875 0  0.78125 0.046875 0  0.796875 0.046875 0  0.8125 0.046875 0  0.828125 0.046875 0  0.84375 0.046875 0  0.859375 0.046875 0  0.875 0.046875 0  0.890625 0.046875 0  0.90625 0.046875 0  0.921875 0.046875 0  0.9375 0.046875 0  0.953125 0.046875 0  0.96875 0.046875 0  0.984375 0.046875 0  1 0.046875 0  0 0.0625 0  0.015625 0.0625 0  0.03125 0.0625 0  0.046875 0.0625 0  0.0625 0.0625 0  0.078125 0.0625 0  0.09375 0.0625 0  0.109375 0.0625 0  0.125 0.0625 0  0.140625 0.0625 0  0.15625 0.0625 0  0.171875 0.0625 0  0.1875 0.0625 0  0.203125 0.0625 0  0.21875 0.0625 0  0.234375 0.0625 0  0.25 0.0625 0  0.265625 0.0625 0  0.28125 0.0625 0  0.296875 0.0625 0  0.3125 0.0625 0  0.328125 0.0625 0  0.34375 0.0625 0  0.359375 0.0625 0  0.375 0.0625 0  0.390625 0.0625 0  0.40625 0.0625 0  0.421875 0.0625 0  0.4375 0.0625 0  0.453125 0.0625 0  0.46875 0.0625 0  0.484375 0.0625 0  0.5 0.0625 0  0.515625 0.0625 0  0.53125 0.0625 0  0.546875 0.0625 0  0.5625 0.0625 0  0.578125 0.0625 0  0.59375 0.0625 0  0.609375 0.0625 0  0.625 0.0625 0  0.640625 0.0625 0  0.65625 0.0625 0  0.671875 0.0625 0  0.6875 0.0625 0  0.703125 0.0625 0  0.71875 0.0625 0  0.734375 0.0625 0  0.75 0.0625 0  0.765625 0.0625 0  0.78125 0.0625 0  0.796875 0.0625 0  0.8125 0.0625 0  0.828125 0.0625 0  0.84375 0.0625 0  0.859375 0.0625 0  0.875 0.0625 0  0.890625 0.0625 0  0.90625 0.0625 0  0.921875 0.0625 0  0.9375 0.0625 0  0.953125 0.0625 0  0.96875 0.0625 0  0.984375 0.0625 0  1 0.0625 0  0 0.078125 0  0.015625 0.078125 0  0.03125 0.078125 0  0.046875 0.078125 0  0.0625 0.078125 0  0.078125 0.078125 0  0.09375 0.078125 0  0.109375 0.078125 0  0.125 0.078125 0  0.140625 0.078125 0  0.15625 0.078125 0  0.171875 0.078125 0  0.1875 0.078125 0  0.203125 0.078125 0  0.21875 0.078125 0  0.234375 0.078125 0  0.25 0.078125 0  0.265625 0.078125 0  0.28125 0.078125 0  0.296875 0.078125 0  0.3125 0.078125 0  0.328125 0.078125 0  0.34375 0.078125 0  0.359375 0.078125 0  0.375 0.078125 0  0.390625 0.078125 0  0.40625 0.078125 0  0.421875 0.078125 0  0.4375 0.078125 0  0.453125 0.078125 0  0.46875 0.078125 0  0.484375 0.078125 0  0.5 0.078125 0  0.515625 0.078125 0  0.53125 0.078125 0  0.546875 0.078125 0  0.5625 0.078125 0  0.578125 0.078125 0  0.59375 0.078125 0  0.609375 0.078125 0  0.625 0.078125 0  0.640625 0.078125 0  0.65625 0.078125 0  0.671875 0.078125 0  0.6875 0.078125 0  0.703125 0.078125 0  0.71875 0.078125 0  0.734375 0.078125 0  0.75 0.078125 0  0.765625 0.078125 0  0.78125 0.078125 0  0.796875 0.078125 0  0.8125 0.078125 0  0.828125 0.078125 0  0.84375 0.078125 0  0.859375 0.078125 0  0.875 0.078125 0  0.890625 0.078125 0  0.90625 0.078125 0  0.921875 0.078125 0  0.9375 0.078125 0  0.953125 0.078125 0  0.96875 0.078125 0  0.984375 0.078125 0  1 0.078125 0  0 0.09375 0  0.015625 0.09375 0  0.03125 0.09375 0  0.046875 0.09375 0  0.0625 0.09375 0  0.078125 0.09375 0  0.09375 0.09375 0  0.109375 0.09375 0  0.125 0.09375 0  0.140625 0.09375 0  0.15625 0.09375 0  0.171875 0.09375 0  0.1875 0.09375 0  0.203125 0.09375 0  0.21875 0.09375 0  0.234375 0.09375 0  0.25 0.09375 0  0.265625 0.09375 0  0.28125 0.09375 0  0.296875 0.09375 0  0.3125 0.09375 0  0.328125 0.09375 0  0.34375 0.09375 0  0.359375 0.09375 0  0.375 0.09375 0  0.390625 0.09375 0  0.40625 0.09375 0  0.421875 0.09375 0  0.4375 0.09375 0  0.453125 0.09375 0  0.46875 0.09375 0  0.484375 0.09375 0  0.5 0.09375 0  0.515625 0.09375 0  0.53125 0.09375 0  0.546875 0.09375 0  0.5625 0.09375 0  0.578125 0.09375 0  0.59375 0.09375 0  0.609375 0.09375 0  0.625 0.09375 0  0.640625 0.09375 0  0.65625 0.09375 0  0.671875 0.09375 0  0.6875 0.09375 0  0.703125 0.09375 0  0.71875 0.09375 0  0.734375 0.09375 0  0.75 0.09375 0  0.765625 0.09375 0  0.78125 0.09375 0  0.796875 0.09375 0  0.8125 0.09375 0  0.828125 0.09375 0  0.84375 0.09375 0  0.859375 0.09375 0  0.875 0.09375 0  0.890625 0.09375 0  0.90625 0.09375 0  0.921875 0.09375 0  0.9375 0.09375 0  0.953125 0.09375 0  0.96875 0.09375 0  0.984375 0.09375 0  1 0.09375 0  0 0.109375 0  0.015625 0.109375 0  0.03125 0.109375 0  0.046875 0.109375 0  0.0625 0.109375 0  0.078125 0.109375 0  0.09375 0.109375 0  0.109375 0.109375 0  0.125 0.109375 0  0.140625 0.109375 0  0.15625 0.109375 0  0.171875 0.109375 0  0.1875 0.109375 0  0.203125 0.109375 0  0.21875 0.109375 0  0.234375 0.109375 0  0.25 0.109375 0  0.265625 0.109375 0  0.28125 0.109375 0  0.296875 0.109375 0  0.3125 0.109375 0  0.328125 0.109375 0  0.34375 0.109375 0  0.359375 0.109375 0  0.375 0.109375 0  0.390625 0.109375 0  0.40625 0.109375 0  0.421875 0.109375 0  0.4375 0.109375 0  0.453125 0.109375 0  0.46875 0.109375 0  0.484375 0.109375 0  0.5 0.109375 0  0.515625 0.109375 0  0.53125 0.109375 0  0.546875 0.109375 0  0.5625 0.109375 0  0.578125 0.109375 0  0.59375 0.109375 0  0.609375 0.109375 0  0.625 0.109375 0  0.640625 0.109375 0  0.65625 0.109375 0  0.671875 0.109375 0  0.6875 0.109375 0  0.703125 0.109375 0  0.71875 0.109375 0  0.734375 0.109375 0  0.75 0.109375 0  0.765625 0.109375 0  0.78125 0.109375 0  0.796875 0.109375 0  0.8125 0.109375 0  0.828125 0.109375 0  0.84375 0.109375 0  0.859375 0.109375 0  0.875 0.109375 0  0.890625 0.109375 0  0.90625 0.109375 0  0.921875 0.109375 0  0.9375 0.109375 0  0.953125 0.109375 0  0.96875 0.109375 0  0.984375 0.109375 0  1 0.109375 0  0 0.125 0  0.015625 0.125 0  0.03125 0.125 0  0.046875 0.125 0  0.0625 0.125 0  0.078125 0.125 0  0.09375 0.125 0  0.109375 0.125 0  0.125 0.12
[...]
<PointData  Scalars="v_sol"> 
<DataArray  type="Float64"  Name="v_sol"  format="ascii">4.9033323818165785e-09  1.2195134232891694e-06  2.3740855878353559e-06  3.4667854728502151e-06  4.4959520536381066e-06  5.4599589937208920e-06  6.3572601775736047e-06  7.1863861152361630e-06  7.9459539371593785e-06  8.6346741626378266e-06  9.2513587629083397e-06  9.7949293250136868e-06  1.0264425650726902e-05  1.0659014717708512e-05  1.0978000038859224e-05  1.1220831427496616e-05  1.1387115183954430e-05  1.1476624717643459e-05  1.1489311619572639e-05  1.1425317200645746e-05  1.1284984511489694e-05  1.1068870860104430e-05  1.0777760844040027e-05  1.0412679914351996e-05  9.9749084890741507e-06  9.4659966344294473e-06  8.8877793326441269e-06  8.2423923556624352e-06  7.5322887646581914e-06  6.7602560559043244e-06  5.9294339740222669e-06  5.0433330143482654e-06  4.1058536367481917e-06  3.1213062138071217e-06  2.0944317371014543e-06  1.0304233058461938e-06  -6.5051577099556408e-08  -1.1858278760956390e-06  -2.3252190340465038e-06  -3.4759920968459826e-06  -4.6303419230936099e-06  -5.7798644502375537e-06  -6.9155289875106655e-06  -8.0276495052795153e-06  -9.1058548895250034e-06  -1.0139058129278320e-05  -1.1115424403916070e-05  -1.2022338036416834e-05  -1.2846368277565138e-05  -1.3573233885246082e-05  -1.4187766461887886e-05  -1.4673872512217849e-05  -1.5014494181882514e-05  -1.5191568638697352e-05  -1.5185986048007459e-05  -1.4977546128549150e-05  -1.4544913133669913e-05  -1.3865569641743896e-05  -1.2915767478516578e-05  -1.1670481890097804e-05  -1.0103345733286152e-05  -8.1866504437252286e-06  -5.8910898115994611e-06  -3.1864518669628401e-06  -3.8785672622857256e-08  -2.4561749495689399e-08  -6.1087797788792862e-06  -1.1892256178893719e-05  -1.7365802307734670e-05  -2.2521097756352048e-05  -2.7349995910811771e-05  -3.1844751962440600e-05  -3.5998004958525693e-05  -3.9802827832881322e-05  -4.3252761327656685e-05  -4.6341854375055332e-05  -4.9064704995096294e-05  -5.1416503367893134e-05  -5.3393076722414156e-05  -5.4990936219054119e-05  -5.6207325865425354e-05  -5.7040273542970640e-05  -5.7488644214964627e-05  -5.7552195390920790e-05  -5.7231634924186430e-05  -5.6528681221596092e-05  -5.5446125946840031e-05  -5.3987899301169777e-05  -5.2159137967892000e-05  -4.9966255809528971e-05  -4.7417017408829685e-05  -4.4520614548257979e-05  -4.1287745724507393e-05  -3.7730698797759288e-05  -3.3863436878701710e-05  -2.9701687558536844e-05  -2.5263035590957067e-05  -2.0567019137874592e-05  -1.5635229693756042e-05  -1.0491415807405638e-05  -5.1615907227307123e-06  3.2585593621683129e-07  5.9400423068961065e-06  1.1647474124415950e-05  1.7411920114990943e-05  2.3194282807454052e-05  2.8952464618209625e-05  3.4641229061154256e-05  4.0212056930492493e-05  4.5612997299683222e-05  5.0788513175333718e-05  5.5679321640273097e-05  6.0222228316032157e-05  6.4349955969264974e-05  6.7990967082547443e-05  7.1069280204568309e-05  7.3504279889823821e-05  7.5210520031243334e-05  7.6097520391629948e-05  7.6069556097272038e-05  7.5025440009616939e-05  7.2858297237691531e-05  6.9455333615150674e-05  6.4697589981364267e-05  5.8459712342807188e-05  5.0609622842544117e-05  4.1008523334928064e-05  2.9509614101550364e-05  1.5961556989772764e-05  1.9428480250967036e-07  -1.0879579592283966e-07  -2.7058749704446507e-05  -5.2676572888860098e-05  -7.6921564399606550e-05  -9.9756869412341516e-05  -1.2114640223101374e-04  -1.4105585761018451e-04  -1.5945263019913875e-04  -1.7630603672465163e-04  -1.9158746598033953e-04  -2.0527055781336317e-04  -2.1733138423318997e-04  -2.2774864021843773e-04  -2.3650384254377343e-04  -2.4358153744851740e-04  -2.4896951730711916e-04  -2.5265904665125775e-04  -2.5464509785374877e-04  -2.5492659680744731e-04  -2.5350667893863846e-04  -2.5039295590508116e-04  -2.4559779333950950e-04  -2.3913860000976937e-04  -2.3103812877802322e-04  -2.2132478975257373e-04  -2.1003297603722505e-04  -1.9720340249563308e-04  -1.8288345795973855e-04  -1.6712757132369133e-04  -1.4999759197868866e-04  -1.3156318505622413e-04  -1.1190224196122238e-04  -9.1101306690832568e-05  -6.9256018448177450e-05  -4.6471571076063896e-05  -2.2863189850137823e-05  1.4433738137360814e-06  2.6311329166805005e-05  5.1592313862416176e-05  7.7125842013868546e-05  1.0273873195523708e-04  1.2824451306593329e-04  1.5344281100221907e-04  1.7811871066069512e-04  2.0204209617980413e-04  2.2496696726577171e-04  2.4663073110896245e-04  2.6675346913746607e-04  2.8503717783212823e-04  3.0116498280698378e-04  3.1480032533482278e-04  3.2558612048053857e-04  3.3314388596128772e-04  3.3707284090053616e-04  3.3694897335642037e-04  3.3232407644056850e-04  3.2272474926736710e-04  3.0765137209333806e-04  2.8657701624492613e-04  2.5894643012172656e-04  2.2417457242508520e-04  1.8164664794767069e-04  1.3071239583237459e-04  7.0701475580695335e-05  8.6058426873870820e-07  -2.4220334133559920e-07  -6.0238733341032792e-05  -1.1726964704552129e-04  -1.7124433516217273e-04  -2.2208075088599687e-04  -2.6969855932272899e-04  -3.1402138956081177e-04  -3.5497665488092505e-04  -3.9249604759065884e-04  -4.2651587284966985e-04  -4.5697744716491112e-04  -4.8382750156840529e-04  -5.0701860639845318e-04  -5.2650961393139204e-04  -5.4226612069772581e-04  -5.5426094983832724e-04  -5.6247465427927787e-04  -5.6689604141624587e-04  -5.6752272004992690e-04  -5.6436167032819864e-04  -5.5742983747489013e-04  -5.4675475010813011e-04  -5.3237516397473784e-04  -5.1434173195178128e-04  -4.9271770119165502e-04  -4.6757963831212872e-04  -4.3901818356039904e-04  -4.0713883490642284e-04  -3.7206276304889500e-04  -3.3392765834659022e-04  -2.9288861071667666e-04  -2.4911902357172152e-04  -2.0281156289869495e-04  -1.5417914261468398e-04  -1.0345594736720597e-04  -5.0898493980451575e-05  3.2132672171488629e-06  5.8574809912931851e-05  1.1485584687031965e-04  1.7169910118415311e-04  2.2871903234961840e-04  2.8550051572236027e-04  3.4159747390788420e-04  3.9653145857752349e-04  4.4979018116578110e-04  5.0082599086068386e-04  5.4905429825382213e-04  5.9385194297212796e-04  6.3455550356542674e-04  6.7045954787694486e-04  7.0081482207118317e-04  7.2482637645426590e-04  7.4165162612704308e-04  7.5039834461413009e-04  7.5012258797830156e-04  7.3982654901805765e-04  7.1845633313265560e-04  6.8489967687544598e-04  6.3798352085330261e-04  5.7647175345130856e-04  4.9906194252712620e-04  4.0438542238598784e-04  2.9099456247369689e-04  1.5739704289869212e-04  1.9158508049086741e-06  -4.1964558830242863e-07  -1.0437064987154043e-04  -2.0318337706266116e-04  -2.9670083596903580e-04  -3.8478087098053150e-04  -4.6728429238450874e-04  -5.4407877871136875e-04  -6.1503856497185602e-04  -6.8004530012552263e-04  -7.3898862542297328e-04  -7.9176686486358522e-04  -8.3828772374118044e-04  -8.7846902462951891e-04  -9.1223947429263665e-04  -9.3953946470184220e-04  -9.6032190877412744e-04  -9.7455311218139912e-04  -9.8221368242760771e-04  -9.8329947647859809e-04  -9.7782258825366251e-04  -9.6581237733043353e-04  -9.4731654025407641e-04  -9.2240222588280173e-04  -8.9115719624435590e-04  -8.5369103442164008e-04  -8.1013640102966459e-04  -7.6065034089313878e-04  -7.0541564157975399e-04  -6.4464224549345647e-04  -5.7856871728183224e-04  -5.0746376836232677e-04  -4.3162784042473801e-04  -3.5139474982096816e-04  -2.6713339480868425e-04  -1.7924952767214421e-04  -8.8187593801491838e-05  5.5673601285171293e-06  1.0148770667814712e-04  1.9900118459553916e-04  2.9748876987254852e-04  3.9628246850919441e-04  4.9466302852282950e-04  5.9185756866907200e-04  6.8703712127104848e-04  7.7931408647965658e-04  8.6773959521279937e-04  9.5130077794449222e-04  1.0289179364358322e-03  1.0994416154178797e-03  1.1616495711550092e-03  1.2142436337253262e-03  1.2558464597874305e-03  1.2849981724371348e-03  1.3001528849396512e-03  1.2996751040140503e-03  1.2818360119951891e-03  1.2448096132329286e-03  1.1866687813125974e-03  1.1053810535867209e-03  9.9880472257244312e-04  8.6468317155557952e-04  7.0064502925247529e-04  5.0418210268455958e-04  2.7270877696242168e-04  3.3194357137898080e-06  -6.3608477838219660e-07  -1.5820155140797547e-04  -3.0797858886621408e-04  -4.4972923514548815e-04  -5.8323801555759973e-04  -7.0829395089477441e-04  -8.2469647272961878e-04  -9.3225495068311435e-04  -1.0307899922178980e-03  -1.1201343192362902e-03  -1.2001338146636973e-03  -1.2706485812760764e-03  -1.3315540572831372e-03  -1.3827421787847253e-03  -1.4241225939256620e-03  -1.4556239296800182e-03  -1.4771951133103884e-03  -1.4888067503169326e-03  -1.4904525608232853e-03  -1.4821508763837093e-03  -1.4639461992602013e-03  -1.4359108262778190e-03  -1.3981465394288122e-03  -1.3507863654608849e-03  -1.2939964067504087e-03  -1.2279777458288448e-03  -1.1529684260013083e-03  -1.0692455105660468e-03  -9.7712722321835759e-04  -8.7697517229739803e-04  -7.6919666161168589e-04  -6.5424709065869892e-04  -5.3263244713529516e-04  -4.0491189472014735e-04  -2.7170045919462665e-04  -1.3367181605746458e-04  8.4388171217755986e-06  1.5383168027221234e-04  3.0163935888052174e-04  4.5092355700772965e-04  6.0067175163374331e-04  7.4979372459556346e-04  8.9711796827991600e-04  1.0413879611239458e-03  1.1812583088661934e-03  1.3152907473765107e-03  1.4419500027768313e-03  1.5595995044451318e-03  1.6664969463705934e-03  1.7607896922044054e-03  1.8405100192113604e-03  1.9035701962249185e-03  1.9477573904579557e-03  1.9707283982963791e-03  1.9700041935213361e-03  1.9429642919444080e-03  1.8868409102379266e-03  1.7987129744999884e-03  1.6754997456047954e-03  1.5139548950945420e-03  1.3106579181669123e-03  1.0620143707716456e-03  7.6422241523250610e-04  4.1336286580014243e-04  5.0314899131826357e-06  -8.8667949630521220e-07  -2.2052732291209267e-04  -4.2931117365594329e-04  -6.2690652117459869e-04  -8.1301300146252847e-04  -9.8733651696292159e-04  -1.1495974824706615e-03  -1.2995301660365566e-03  -1.4368845008831234e-03  -1.5614273073249077e-03  -1.6729437516753197e-03  -1.7712388222099690e-03  -1.8561388842501755e-03  -1.9274933005847105e-03  -1.9851761239582212e-03  -2.0290878629229086e-03  -2.0591573239057883e-03  -2.0753435320204744e-03  -2.0776377333384358e-03  -2.0660654813852235e-03  -2.0406888107178853e-03  -2.0016085005221964e-03  -1.9489664312554141e-03  -1.8829480374504988e-03  -1.8037848598887634e-03  -1.7117572004425820e-03  -1.6071968829873254e-03  -1.4904901238801075e-03  -1.3620805156063585e-03  -1.2224721273001696e-03  -1.0722327259519377e-03  -9.1199712222795942e-04  -7.4247064494015430e-04  -5.6443274832152998e-04  -3.7874075638201900e-04  -1.8633374874326404e-04  1.1763407524022954e-05  2.1443587540671648e-04  4.2047451001350522e-04  6.2857136027425918e-04  8.3731500521383115e-04  1.0451857195953548e-03  1.2505504635817004e-03  1.4516576909138013e-03  1.6466319699498847e-03  1.8334684117511844e-03  2.0100268992367669e-03  2.1740261112638353e-03  2.3230373353158740e-03  2.4544780623093924e-03  2.5656053568351668e-03  2.6535089960073592e-03  2.7151043697442247e-03  2.7471251356887740e-03  2.7461156196294362e-03  2.7084229600140152e-03  2.6301889655601352e-03  2.5073417634551569e-03  2.3355869132142123e-03  2.1103991489982306e-03  1.8270104088167303e-03  1.4804101669744891e-03  1.0652987957689704e-03  5.7621309254915520e-04  7.0137173946905466e-06  -1.1667591365066809e-06  -2.9018633183876366e-04  -5.6491972535275322e-04  -8.2493045013138483e-04  -1.0698232647846761e-03  -1.2992111737176544e-03  -1.5127262778489013e-03  -1.7100189072275335e-03  -1.8907600053249761e-03  -2.0546427369082143e-03  -2.2013844077825541e-03  -2.3307284069703981e-03  -2.4424462530059318e-03  -2.5363397262059607e-03  -2.6122430957721409e-03  -2.6700254434301658e-03  -2.7095930873593504e-03  -2.7308921097405590e-03  -2.7339109914946529e-03  -2.7186833578507915e-03  -2.6852908385029627e-03  -2.6338660462212689e-03  -2.5645956778997830e-03  -2.4777237421406378e-03  -2.3735549175945727e-03  -2.2524580464021002e-03  -2.1148697672083287e-03  -1.9612982923534845e-03  -1.7923273339779421e-03  -1.6086201839180250e-03  -1.4109239524108344e-03  -1.2000739707725965e-03  -9.7699836336433967e-04  -7.4272279431319272e-04  -4.9837539461469998e-04  -2.4519187540371530e-04  1.5479166653042900e-05  2.8217074571925505e-04  5.5329177860801901e-04  8.2712116558019474e-04  1.1018016534627190e-03  1.3753334742380647e-03  1.6455677520634028e-03  1.9101996714807491e-03  2.1667613993756889e-03  2.4126147530340418e-03  2.6449436064314006e-03  2.8607460266713331e-03  3.0568261322594967e-03  3.2297856646743010e-03  3.3760152644393211e-03  3.4916854427135689e-03  3.5727372389569431e-03  3.6148725557333585e-03  3.6135441586232172e-03  3.5639453393984718e-03  3.4609992016558784e-03  3.2993476709297278e-03  3.0733398015635300e-03  2.7770209108730478e-03  2.4041168264664868e-03  1.9480343252000619e-03  1.4017997599031075e-03  7.5822424244055531e-04  9.2291732817621565e-06  -1.4718307460583629e-06  -3.6606112972307065e-04  -7.1262885315471797e-04  -1.0406243828769742e-03  -1.3495491340393771e-03  -1.6389149235606294e-03  -1.9082576580884900e-03  -2.1571362397466826e-03  -2.3851355738744259e-03  -2.5918685972915897e-03  -2.7769786999976074e-03  -2.9401421751662090e-03  -3.0810708004821987e-03  -3.1995145279341730e-03  -3.2952642932345898e-03  -3.3681549470185560e-03  -3.4180683125561752e-03  -3.4449363741765847e-03  -3.4487446009098281e-03  -3.4295354099375883e-03  -3.3874117745934617e-03  -3.3225409817908133e-03  -3.2351585439003116e-03  -3.1255722702493772e-03  -2.9941665035664879e-03  -2.8414065268507543e-03  -2.6678431463088314e-03  -2.4741174561648321e-03  -2.2609657913208177e-03  -2.0292248740191540e-03  -1.7798371608372986e-03  -1.5138563965297403e-03  -1.2324533814206189e-03  -9.3692195924528808e-04  -6.2868523253703284e-04  -3.0930201286027953e-04  1.9526486600271147e-05  3.5594970836940083e-04  6.9796054998541308e-04  1.0433878971074654e-03  1.3898888820253303e-03  1.7349408589325348e-03  2.0758330870803750e-03  2.4096581126817544e-03  2.7333028401767996e-03  3.0434392832096300e-03  3.3365149853951267e-03  3.6087431006778959e-03  3.8560921227974712e-03  4.0742752530877448e-03  4.2587393955159153e-03  4.4046537676282870e-03  4.5068981154904927e-03  4.5600505213479921e-03  4.5583747888311259e-03  4.4958074033799623e-03  4.3659440163999613e-03  4.1620255818875544e-03  3.8769236058467270e-03  3.5031264395597598e-03  3.0327194075892116e-03  2.4573853626865686e-03  1.7683272628583665e-03  9.5647654876333810e-04  1.1642317929164701e-05  -1.7975771913477690e-06  -4.4707799625096051e-04  -8.7034829395536619e-04  -1.2709359889540328e-03  -1.6482321492932764e-03  -2.0016405468816787e-03  -2.3305943749672249e-03  -2.6345549116406556e-03  -2.9130151932720656e-03  -3.1655024916578786e-03  -3.3915812716928269e-03  -3.5908561835949517e-03  -3.7629752155439703e-03  -3.9076329787788413e-03  -4.0245741387992867e-03  -4.1135969952984693e-03  -4.1745572166096926e-03  -4.2073717337942863e-03  -4.2120227998742876e-03  -4.1885622198168061e-03  -4.1371157570601769e-03  -4.0578877225390482e-03  -3.9511657523425264e-03  -3.8173257803214783e-03  -3.6568372121466362e-03  -3.4702683075099956e-03  -3.2582917773608462e-03  -3.0216906032663987e-03  -2.7613640861978658e-03  -2.4783341322545541e-03  -2.1737517830576060e-03  -1.8489039987702697e-03  -1.5052207019317445e-03  -1.1442820905301335e-03  -7.6782622898103280e-04  -3.7775692592953458e-04  2.3848091952907249e-05  4.3472870074151646e-04  8.5243358489828821e-04  1.2743111177998521e-03  1.6974999068928029e-03  2.1189189929257963e-03  2.5352576924104983e-03  2.9429650721593107e-03  3.3382390444350787e-03  3.7170150709262160e-03  4.0749544634310292e-03  4.4074322687965833e-03  4.7095247253056867e-03  4.9759962773559619e-03  5.2012861348807735e-03  5.3794943636708637e-03  5.5043674920471214e-03  5.5692836201153874e-03  5.5672370130668046e-03  5.4908221756872705e-03  5.3322173451805406e-03  5.0831675595685993e-03  4.7349666424521680e-03  4.2784404628524800e-03  3.7039226647483030e-03  3.0012553457449179e-03  2.1596944968866067e-03  1.1681645014988838e-03  1.4219002431539174e-05  -2.1398576494197176e-06  -5.3220706143071721e-04  -1.0360731501802114e-03  -1.5129375938892863e-03  -1.9620755125672237e-03  -2.3827771490344402e-03  -2.7743677696822054e-03  -3.1362060734379327e-03  -3.4676885646857569e-03  -3.7682525020793466e-03  -4.0373794193904917e-03  -4.2745986874861541e-03  -4.4794912672655503e-03  -4.6516936202781918e-03  -4.7909017932665134e-03  -4.8968756797600739e-03  -4.9694434656055988e-03  -5.0085062645362430e-03  -5.0140429503316049e-03  -4.9861151922430116e-03  -4.9248727005764652e-03  -4.8305586895251206e-03  -4.7035155645525090e-03  -4.5441908418461067e-03  -4.3531433075798117e-03  -4.1310494249529118e-03  -3.8787099972081990e-03  -3.5970570950696655e-03  -3.2871612572906096e-03  -2.9502389732550061e-03  -2.5876604568364795e-03  -2.2009577209864072e-03  -1.7918329627978663e-03  -1.3621672690749722e-03  -9.1402965272496350e-04  -4.4968643058857931e-04  2.8389046372718703e-05  5.1750629930107691e-04  1.0147472525277197e-03  1.5169553776399885e-03  2.0207244383161878e-03  2.5223868233687058e-03  3.0180014550823140e-03  3.5033412595727089e-03  3.9738801855172447e-03  4.4247797572283315e-03  4.8508751476458167e-03  5.2466607564230295e-03  5.6062752778613754e-03  5.9234862430327028e-03  6.1916740199586973e-03  6.4038152553704047e-03  6.5524657407275170e-03  6.6297426861056594e-03  6.6273063798846224e-03  6.5363412308628950e-03  6.3475361179173781e-03  6.0510642344440754e-03  5.6365616427591974e-03  5.0931073465367441e-03  4.4091943986410915e-03  3.5727307097923313e-03  2.5709264813625278e-03  1.3905971665037632e-03  1.6926472506609550e-05  -2.4947074762378321e-06  -6.2046227285982144e-04  -1.2078838260638906e-03  -1.7638260861413740e-03  -2.2874439671601160e-03  -2.7779100137849452e-03  -3.2344376022137226e-03  -3.6562790852578400e-03  -4.0427308904319812e-03  -4.3931369577529245e-03  -4.7068928444455923e-03  -4.9834498775941320e-03  -5.2223195294217343e-03  -5.4230779763994813e-03  -5.5853708611218545e-03  -5.7089182605944968e-03  -5.7935198689600641e-03  -5.8390604017776286e-03  -5.8455152294937390e-03  -5.8129562478861424e-03  -5.7415579935159817e-03  -5.6316040124556157e-03  -5.4834934908047162e-03  -5.2977481557603193e-03  -5.0750194562631558e-03  -4.8160960325086127e-03  -4.5219114838851732e-03  -4.1935524451806256e-03  -3.8322669811876246e-03  -3.4394733101348568e-03  -3.0167688666741417e-03  -2.5659397154662771e-03  -2.0889703267282598e-03  -1.5880537254352614e-03  -1.0656020262055266e-03  -5.2425736624446453e-04  3.3096750922980240e-05  6.0332368783708754e-04  1.1830214681396156e-03  1.7685101204123373e-03  2.3558185565783736e-03  2.9406709702246899e-03  3.5184727397916766e-03  4.0842958211534802e-03  4.6328636136790382e-03  5.1585352834173344e-03  5.6552895265925482e-03  6.1167077561249629e-03  6.5359566934048907e-03  6.9057703470618431e-03  7.2184313599227305e-03  7.4657517049499349e-03  7.6390527099655632e-03  7.7291443920519450e-03  7.7263040758999493e-03  7.6202542921730261e-03  7.4001398685804359e-03  7.0545044319656842e-03  6.5712654063794012e-03  5.9376907810559263e-03  5.1403654268329388e-03  4.1651920395466497e-03  2.9972599046121581e-03  1.6211980999589755e-03  1.9733367456068668e-05  -2.8583382418794175e-06  -7.1090140449606165e-04  -1.3839460447261525e-03  -2.0209229420369750e-03  -2.6208638299882328e-03  -3.1828206425856382e-03  -3.7058920970541535e-03  -4.1892215685042696e-03  -4.6320029311338476e-03  -5.0334844971132537e-03  -5.3929737195957152e-03  -5.7098419506588366e-03  -5.9835294543270140e-03  -6.2135506302176211e-03  -6.3994994695104109e-03  -6.5410552474158253e-03  -6.6379884613386540e-03  -6.6901670228895491e-03  -6.6975627124955823e-03  -6.6602579055254291e-03  -6.5784525791356911e-03  -6.4524716093110777e-03  -6.2827723678513490e-03  -6.0699526293484874e-03  -5.8147587984915521e-03  -5.5180944683409349e-03  -5.1810293205291954e-03  -4.8048083786624831e-03  -4.3908616265314823e-03  -3.9408140030773274e-03  -3.456495786407502