<?xml version="1.0"?>
<VTKFile type="UnstructuredGrid"  version="0.1"  >
<UnstructuredGrid>
<Piece  NumberOfPoints="1089" NumberOfCells="1024">
<Points>
<DataArray  type="Float64"  NumberOfComponents="3"  format="ascii">0 0 0  0.03125 0 0  0.0625 0 0  0.09375 0 0  0.125 0 0  0.15625 0 0  0.1875 0 0  0.21875 0 0  0.25 0 0  0.28125 0 0  0.3125 0 0  0.34375 0 0  0.375 0 0  0.40625 0 0  0.4375 0 0  0.46875 0 0  0.5 0 0  0.53125 0 0  0.5625 0 0  0.59375 0 0  0.625 0 0  0.65625 0 0  0.6875 0 0  0.71875 0 0  0.75 0 0  0.78125 0 0  0.8125 0 0  0.84375 0 0  0.875 0 0  0.90625 0 0  0.9375 0 0  0.96875 0 0  1 0 0  0 0.03125 0  0.03125 0.03125 0  0.0625 0.03125 0  0.09375 0.03125 0  0.125 0.03125 0  0.15625 0.03125 0  0.1875 0.03125 0  0.21875 0.03125 0  0.25 0.03125 0  0.28125 0.03125 0  0.3125 0.03125 0  0.34375 0.03125 0  0.375 0.03125 0  0.40625 0.03125 0  0.4375 0.03125 0  0.46875 0.03125 0  0.5 0.03125 0  0.53125 0.03125 0  0.5625 0.03125 0  0.59375 0.03125 0  0.625 0.03125 0  0.65625 0.03125 0  0.6875 0.03125 0  0.71875 0.03125 0  0.75 0.03125 0  0.78125 0.03125 0  0.8125 0.03125 0  0.84375 0.03125 0  0.875 0.03125 0  0.90625 0.03125 0  0.9375 0.03125 0  0.96875 0.03125 0  1 0.03125 0  0 0.0625 0  0.03125 0.0625 0  0.0625 0.0625 0  0.09375 0.0625 0  0.125 0.0625 0  0.15625 0.0625 0  0.1875 0.0625 0  0.21875 0.0625 0  0.25 0.0625 0  0.28125 0.0625 0  0.3125 0.0625 0  0.34375 0.0625 0  0.375 0.0625 0  0.40625 0.0625 0  0.4375 0.0625 0  0.46875 0.0625 0  0.5 0.0625 0  0.53125 0.0625 0  0.5625 0.0625 0  0.59375 0.0625 0  0.625 0.0625 0  0.65625 0.0625 0  0.6875 0.0625 0  0.71875 0.0625 0  0.75 0.0625 0  0.78125 0.0625 0  0.8125 0.0625 0  0.84375 0.0625 0  0.875 0.0625 0  0.90625 0.0625 0  0.9375 0.0625 0  0.96875 0.0625 0  1 0.0625 0  0 0.09375 0  0.03125 0.09375 0  0.0625 0.09375 0  0.09375 0.09375 0  0.125 0.09375 0  0.15625 0.09375 0  0.1875 0.09375 0  0.21875 0.09375 0  0.25 0.09375 0  0.28125 0.09375 0  0.3125 0.09375 0  0.34375 0.09375 0  0.375 0.09375 0  0.40625 0.09375 0  0.4375 0.09375 0  0.46875 0.09375 0  0.5 0.09375 0  0.53125 0.09375 0  0.5625 0.09375 0  0.59375 0.09375 0  0.625 0.09375 0  0.65625 0.09375 0  0.6875 0.09375 0  0.71875 0.09375 0  0.75 0.09375 0  0.78125 0.09375 0  0.8125 0.09375 0  0.84375 0.09375 0  0.875 0.09375 0  0.90625 0.09375 0  0.9375 0.09375 0  0.96875 0.09375 0  1 0.09375 0  0 0.125 0  0.03125 0.125 0  0.0625 0.125 0  0.09375 0.125 0  0.125 0.125 0  0.15625 0.125 0  0.1875 0.125 0  0.21875 0.125 0  0.25 0.125 0  0.28125 0.125 0  0.3125 0.125 0  0.34375 0.125 0  0.375 0.125 0  0.40625 0.125 0  0.4375 0.125 0  0.46875 0.125 0  0.5 0.125 0  0.53125 0.125 0  0.5625 0.125 0  0.59375 0.125 0  0.625 0.125 0  0.65625 0.125 0  0.6875 0.125 0  0.71875 0.125 0  0.75 0.125 0  0.78125 0.125 0  0.8125 0.125 0  0.84375 0.125 0  0.875 0.125 0  0.90625 0.125 0  0.9375 0.125 0  0.96875 0.125 0  1 0.125 0  0 0.15625 0  0.03125 0.15625 0  0.0625 0.15625 0  0.09375 0.15625 0  0.125 0.15625 0  0.15625 0.15625 0  0.1875 0.15625 0  0.21875 0.15625 0  0.25 0.15625 0  0.28125 0.15625 0  0.3125 0.15625 0  0.34375 0.15625 0  0.375 0.15625 0  0.40625 0.15625 0  0.4375 0.15625 0  0.46875 0.15625 0  0.5 0.15625 0  0.53125 0.15625 0  0.5625 0.15625 0  0.59375 0.15625 0  0.625 0.15625 0  0.65625 0.15625 0  0.6875 0.15625 0  0.71875 0.15625 0  0.75 0.15625 0  0.78125 0.15625 0  0.8125 0.15625 0  0.84375 0.15625 0  0.875 0.15625 0  0.90625 0.15625 0  0.9375 0.15625 0  0.96875 0.15625 0  1 0.15625 0  0 0.1875 0  0.03125 0.1875 0  0.0625 0.1875 0  0.09375 0.1875 0  0.125 0.1875 0  0.15625 0.1875 0  0.1875 0.1875 0  0.21875 0.1875 0  0.25 0.1875 0  0.28125 0.1875 0  0.3125 0.1875 0  0.34375 0.1875 0  0.375 0.1875 0  0.40625 0.1875 0  0.4375 0.1875 0  0.46875 0.1875 0  0.5 0.1875 0  0.53125 0.1875 0  0.5625 0.1875 0  0.59375 0.1875 0  0.625 0.1875 0  0.65625 0.1875 0  0.6875 0.1875 0  0.71875 0.1875 0  0.75 0.1875 0  0.78125 0.1875 0  0.8125 0.1875 0  0.84375 0.1875 0  0.875 0.1875 0  0.90625 0.1875 0  0.9375 0.1875 0  0.96875 0.1875 0  1 0.1875 0  0 0.21875 0  0.03125 0.21875 0  0.0625 0.21875 0  0.09375 0.21875 0  0.125 0.21875 0  0.15625 0.21875 0  0.1875 0.21875 0  0.21875 0.21875 0  0.25 0.21875 0  0.28125 0.21875 0  0.3125 0.21875 0  0.34375 0.21875 0  0.375 0.21875 0  0.40625 0.21875 0  0.4375 0.21875 0  0.46875 0.21875 0  0.5 0.21875 0  0.53125 0.21875 0  0.5625 0.21875 0  0.59375 0.21875 0  0.625 0.21875 0  0.65625 0.21875 0  0.6875 0.21875 0  0.71875 0.21875 0  0.75 0.21875 0  0.78125 0.21875 0  0.8125 0.21875 0  0.84375 0.21875 0  0.875 0.21875 0  0.90625 0.21875 0  0.9375 0.21875 0  0.96875 0.21875 0  1 0.21875 0  0 0.25 0  0.03125 0.25 0  0.0625 0.25 0  0.09375 0.25 0  0.125 0.25 0  0.15625 0.25 0  0.1875 0.25 0  0.21875 0.25 0  0.25 0.25 0  0.28125 0.25 0  0.3125 0.25 0  0.34375 0.25 0  0.375 0.25 0  0.40625 0.25 0  0.4375 0.25 0  0.46875 0.25 0  0.5 0.25 0  0.53125 0.25 0  0.5625 0.25 0  0.59375 0.25 0  0.625 0.25 0  0.65625 0.25 0  0.6875 0.25 0  0.71875 0.25 0  0.75 0.25 0  0.78125 0.25 0  0.8125 0.25 0  0.84375 0.25 0  0.875 0.25 0  0.90625 0.25 0  0.9375 0.25 0  0.96875 0.25 0  1 0.25 0  0 0.28125 0  0.03125 0.28125 0  0.0625 0.28125 0  0.09375 0.28125 0  0.125 0.28125 0  0.15625 0.28125 0  0.1875 0.28125 0  0.21875 0.28125 0  0.25 0.28125 0  0.28125 0.28125 0  0.3125 0.28125 0  0.34375 0.28125 0  0.375 0.28125 0  0.40625 0.28125 0  0.4375 0.28125 0  0.46875 0.28125 0  0.5 0.28125 0  0.53125 0.28125 0  0.5625 0.28125 0  0.59375 0.28125 0  0.625 0.28125 0  0.65625 0.28125 0  0.6875 0.28125 0  0.71875 0.28125 0  0.75 0.28125 0  0.78125 0.28125 0  0.8125 0.28125 0  0.84375 0.28125 0  0.875 0.28125 0  0.90625 0.28125 0  0.9375 0.28125 0  0.96875 0.28125 0  1 0.28125 0  0 0.3125 0  0.03125 0.3125 0  0.0625 0.3125 0  0.09375 0.3125 0  0.125 0.3125 0  0.15625 0.3125 0  0.1875 0.3125 0  0.21875 0.3125 0  0.25 0.3125 0  0.28125 0.3125 0  0.3125 0.3125 0  0.34375 0.3125 0  0.375 0.3125 0  0.40625 0.3125 0  0.4375 0.3125 0  0.46875 0.3125 0  0.5 0.3125 0  0.53125 0.3125 0  0.5625 0.3125 0  0.59375 0.3125 0  0.625 0.3125 0  0.65625 0.3125 0  0.6875 0.3125 0  0.71875 0.3125 0  0.75 0.3125 0  0.78125 0.3125 0  0.8125 0.3125 0  0.84375 0.3125 0  0.875 0.3125 0  0.90625 0.3125 0  0.9375 0.3125 0  0.96875 0.3125 0  1 0.3125 0  0 0.34375 0  0.03125 0.34375 0  0.0625 0.34375 0  0.09375 0.34375 0  0.125 0.34375 0  0.15625 0.34375 0  0.1875 0.34375 0  0.21875 0.34375 0  0.25 0.34375 0  0.28125 0.34375 0  0.3125 0.34375 0  0.34375 0.34375 0  0.375 0.34375 0  0.40625 0.34375 0  0.4375 0.34375 0  0.46875 0.34375 0  0.5 0.34375 0  0.53125 0.34375 0  0.5625 0.34375 0  0.59375 0.34375 0  0.625 0.34375 0  0.65625 0.34375 0  0.6875 0.34375 0  0.71875 0.34375 0  0.75 0.34375 0  0.78125 0.34375 0  0.8125 0.34375 0  0.84375 0.34375 0  0.875 0.34375 0  0.90625 0.34375 0  0.9375 0.34375 0  0.96875 0.34375 0  1 0.34375 0  0 0.375 0  0.03125 0.375 0  0.0625 0.375 0  0.09375 0.375 0  0.125 0.375 0  0.15625 0.375 0  0.1875 0.375 0  0.21875 0.375 0  0.25 0.375 0  0.28125 0.375 0  0.3125 0.375 0  0.34375 0.375 0  0.375 0.375 0  0.40625 0.375 0  0.4375 0.375 0  0.46875 0.375 0  0.5 0.375 0  0.53125 0.375 0  0.5625 0.375 0  0.59375 0.375 0  0.625 0.375 0  0.65625 0.375 0  0.6875 0.375 0  0.71875 0.375 0  0.75 0.375 0  0.78125 0.375 0  0.8125 0.375 0  0.84375 0.375 0  0.875 0.375 0  0.90625 0.375 0  0.9375 0.375 0  0.96875 0.375 0  1 0.375 0  0 0.40625 0  0.03125 0.40625 0  0.0625 0.40625 0  0.09375 0.40625 0  0.125 0.40625 0  0.15625 0.40625 0  0.1875 0.40625 0  0.21875 0.40625 0  0.25 0.40625 0  0.28125 0.40625 0  0.3125 0.40625 0  0.34375 0.40625 0  0.375 0.40625 0  0.40625 0.40625 0  0.4375 0.40625 0  0.46875 0.40625 0  0.5 0.40625 0  0.53125 0.40625 0  0.5625 0.40625 0  0.59375 0.40625 0  0.625 0.40625 0  0.65625 0.40625 0  0.6875 0.40625 0  0.71875 0.40625 0  0.75 0.40625 0  0.78125 0.40625 0  0.8125 0.40625 0  0.84375 0.40625 0  0.875 0.40625 0  0.90625 0.40625 0  0.9375 0.40625 0  0.96875 0.40625 0  1 0.40625 0  0 0.4375 0  0.03125 0.4375 0  0.0625 0.4375 0  0.09375 0.4375 0  0.125 0.4375 0  0.15625 0.4375 0  0.1875 0.4375 0  0.21875 0.4375 0  0.25 0.4375 0  0.28125 0.4375 0  0.3125 0.4375 0  0.34375 0.4375 0  0.375 0.4375 0  0.40625 0.4375 0  0.4375 0.4375 0  0.46875 0.4375 0  0.5 0.4375 0  0.53125 0.4375 0  0.5625 0.4375 0  0.59375 0.4375 0  0.625 0.4375 0  0.65625 0.4375 0  0.6875 0.4375 0  0.71875 0.4375 0  0.75 0.4375 0  0.78125 0.4375 0  0.8125 0.4375 0  0.84375 0.4375 0  0.875 0.4375 0  0.90625 0.4375 0  0.9375 0.4375 0  0.96875 0.4375 0  1 0.4375 0  0 0.46875 0  0.03125 0.46875 0  0.0625 0.46875 0  0.09375 0.46875 0  0.125 0.46875 0  0.15625 0.46875 0  0.1875 0.46875 0  0.21875 0.46875 0  0.25 0.46875 0  0.28125 0.46875 0  0.3125 0.46875 0  0.34375 0.46875 0  0.375 0.46875 0  0.40625 0.46875 0  0.4375 0.46875 0  0.46875 0.46875 0  0.5 0.46875 0  0.53125 0.46875 0  0.5625 0.46875 0  0.59375 0.46875 0  0.625 0.46875 0  0.65625 0.46875 0  0.6875 0.46875 0  0.71875 0.46875 0  0.75 0.46875 0  0.78125 0.46875 0  0.8125 0.46875 0  0.84375 0.46875 0  0.875 0.46875 0  0.90625 0.46875 0  0.9375 0.46875 0  0.96875 0.46875 0  1 0.46875 0  0 0.5 0  0.03125 0.5 0  0.0625 0.5 0  0.09375 0.5 0  0.125 0.5 0  0.15625 0.5 0  0.1875 0.5 0  0.21875 0.5 0  0.25 0.5 0  0.28125 0.5 0  0.3125 0.5 0  0.34375 0.5 0  0.375 0.5 0  0.40625 0.5 0  0.4375 0.5 0  0.46875 0.5 0  0.5 0.5 0  0.53125 0.5 0  0.5625 0.5 0  0.59375 0.5 0  0.625 0.5 0  0.65625 0.5 0  0.6875 0.5 0  0.71875 0.5 0  0.75 0.5 0  0.78125 0.5 0  0.8125 0.5 0  0.84375 0.5 0  0.875 0.5 0  0.90625 0.5 0  0.9375 0.5 0  0.96875 0.5 0  1 0.5 0  0 0.53125 0  0.03125 0.53125 0  0.0625 0.53125 0  0.09375 0.53125 0  0.125 0.53125 0  0.15625 0.53125 0  0.1875 0.53125 0  0.21875 0.53125 0  0.25 0.53125 0  0.28125 0.53125 0  0.3125 0.53125 0  0.34375 0.53125 0  0.375 0.53125 0  0.40625 0.53125 0  0.4375 0.53125 0  0.46875 0.53125 0  0.5 0.53125 0  0.53125 0.53125 0  0.5625 0.53125 0  0.59375 0.53125 0  0.625 0.53125 0  0.65625 0.53125 0  0.6875 0.53125 0  0.71875 0.53125 0  0.75 0.53125 0  0.78125 0.531
[...]
<PointData  Scalars="u_sol"> 
<DataArray  type="Float64"  Name="u_sol"  format="ascii">-4.7677640722666219e-05  -9.5809280278164288e-05  5.3419051621093850e-04  1.6691595077397091e-03  1.8508641768296980e-03  1.1129573222071090e-03  4.4428211478189189e-04  4.3654846621706727e-03  6.4740820051443918e-03  2.6824543988888745e-03  1.0124021400544352e-02  2.5235978373835923e-02  2.7880479532174277e-02  1.5602541687981666e-02  -3.5868681152944537e-03  -2.0754533586585081e-02  -2.9463744367348086e-02  -2.6716538653838270e-02  -1.2153640632160600e-02  1.0965159243686500e-02  3.6712879179376032e-02  5.5472655778614856e-02  5.9188264456218470e-02  4.5774905265695894e-02  2.2482356404849010e-02  3.4818597184916190e-03  -2.6708324318906827e-03  -1.5638791656693793e-03  -7.5203865710685202e-04  -5.4154720753828514e-04  -4.0944567205205353e-04  -1.6778934122695932e-04  1.2338164796126438e-05  -3.1870672430036955e-04  1.5883099996495415e-03  6.1738954550150981e-03  1.2188031339705266e-02  1.7823508280441061e-02  1.4590861705120098e-02  5.3332381803251382e-03  3.2225163320820081e-03  3.9722559297027506e-03  -1.0165172649166889e-02  -5.0177036607299171e-02  -1.0716962259293346e-01  -1.6192575899779627e-01  -2.0432438298790995e-01  -2.3149620725576220e-01  -2.4269317409700655e-01  -2.3804745332012231e-01  -2.1761376492381546e-01  -1.8225441167516215e-01  -1.3381112921705504e-01  -7.6933554648657129e-02  -1.8676114691120880e-02  3.0791266738919312e-02  6.2604262994372981e-02  7.2579651149489346e-02  6.4767733272732053e-02  4.6156317307480453e-02  2.6419048668921037e-02  1.3023602948298074e-02  5.4729400588805713e-03  1.7768367804942432e-03  1.7950393183258122e-04  -6.4033559024460188e-05  -6.0866493835748717e-04  2.8738789866034793e-03  8.3797542983608912e-03  1.0890647819380223e-02  1.5957541647898341e-02  2.1072079335588401e-02  1.4385000605515263e-02  -1.5557736263171825e-02  -7.6079893962023221e-02  -1.5103395172417916e-01  -2.2336758201984852e-01  -2.8455384347583168e-01  -3.3045557344522247e-01  -3.6202650926058511e-01  -3.8097408963374185e-01  -3.8950913108631152e-01  -3.8846099848472115e-01  -3.7770377993741500e-01  -3.5580902302407486e-01  -3.2067508487777446e-01  -2.7040619072326028e-01  -2.0542785449863143e-01  -1.3113504150560099e-01  -5.9780289669544760e-02  -6.1549185078200695e-03  2.1919008564211893e-02  3.2532727014637192e-02  3.0999111778032985e-02  2.1789008444464991e-02  1.2420587094956971e-02  5.3282001349329120e-03  1.3194663942136414e-03  -2.2976099478243082e-04  -8.1506841874514962e-04  4.0823456384025732e-03  1.0529246316706676e-02  4.2500205646347506e-03  -1.7171060759371151e-02  -3.6095735603643167e-02  -6.5210905951677167e-02  -1.3226411485511891e-01  -2.1633691072952538e-01  -2.9062249735206863e-01  -3.4724447918542439e-01  -3.8544204216121486e-01  -4.0953471526933521e-01  -4.2330143835888889e-01  -4.3044431630206070e-01  -4.3330584851329301e-01  -4.3346610133971170e-01  -4.3138878511763007e-01  -4.2625391612638702e-01  -4.1526840266380477e-01  -3.9286963971778954e-01  -3.5173817918942130e-01  -2.8595221780397101e-01  -1.9826881614116060e-01  -1.0501515128338142e-01  -3.3979503087302437e-02  -1.4561462814649013e-03  1.2074631587181354e-02  1.6865269488997484e-02  1.2705404805293913e-02  7.4393346253259149e-03  2.0977224343011031e-03  -3.7038165632239008e-04  -9.2702721825524046e-04  5.5498226104661865e-03  9.5543297896575445e-03  6.5407981286116929e-03  -7.1508538888711577e-03  -5.7040461070957928e-02  -1.4628577826355929e-01  -2.4105668162382868e-01  -3.1485228686384764e-01  -3.6196117617699819e-01  -3.8611362727386694e-01  -3.9558489227672000e-01  -3.9730977815440777e-01  -3.9612990247337787e-01  -3.9444255632657826e-01  -3.9341366957290763e-01  -3.9361613224763253e-01  -3.9566453304298299e-01  -4.0023093842281349e-01  -4.0734558837705315e-01  -4.1469063607038420e-01  -4.1494881129888955e-01  -3.9501875041113471e-01  -3.4013273838848618e-01  -2.4579245976057773e-01  -1.3077121224855501e-01  -3.9640700648882587e-02  -4.5483307188138996e-03  5.1831320575607895e-03  9.9161782727546725e-03  5.7066309728141555e-03  1.9678966800804462e-03  -3.0379542188529692e-04  -2.6345996797008561e-04  5.2364873360534435e-03  -7.1025601191549977e-04  -2.5360053834690189e-02  -7.7602124606368547e-02  -1.6436789252858955e-01  -2.5378862434442484e-01  -3.1624335033318496e-01  -3.4819290708357908e-01  -3.5756814429334532e-01  -3.5635490999294195e-01  -3.5300436341094138e-01  -3.5138855257640172e-01  -3.5174874001927980e-01  -3.5304667788574262e-01  -3.5420387838248185e-01  -3.5466575990991150e-01  -3.5441381085728602e-01  -3.5412102222146052e-01  -3.5542341941040306e-01  -3.6100818068299712e-01  -3.7302961018807756e-01  -3.8819180833620598e-01  -3.9178078540862327e-01  -3.5874830716835249e-01  -2.7078918688882886e-01  -1.4155579762584636e-01  -3.5166310279045682e-02  -1.9114465170412846e-03  1.7034389197052066e-03  6.1004443911593540e-03  1.9173880830158636e-03  -4.3044966663773472e-04  1.0133018077861319e-03  1.9407036861085335e-03  -1.4740761001268095e-02  -5.8684675340691911e-02  -1.3558408031485586e-01  -2.2155160554371925e-01  -2.8235659414705228e-01  -3.1096193949914874e-01  -3.1819034000201596e-01  -3.1794894995488510e-01  -3.1871358838878705e-01  -3.2230925110659103e-01  -3.2711570840154575e-01  -3.3153319290406269e-01  -3.3493819556661614e-01  -3.3750452076753173e-01  -3.3952631964037544e-01  -3.4116365528118403e-01  -3.4218327024514661e-01  -3.4198522468401921e-01  -3.4010207999887937e-01  -3.3782300180502917e-01  -3.3983819878952876e-01  -3.5100671095478486e-01  -3.6385164074884785e-01  -3.4846090479538411e-01  -2.7019189631341717e-01  -1.3137364220462261e-01  -2.2821621084550180e-02  2.7781499577720246e-03  -5.9033272985400953e-04  -3.9735943234939393e-04  3.3526617055982725e-04  2.0960108719819486e-03  -6.0237993963553910e-03  -4.2551760193894485e-02  -1.1052891355454406e-01  -1.9380634633555180e-01  -2.5891307228990473e-01  -2.8834582978422801e-01  -2.9348568280850956e-01  -2.9109674409495906e-01  -2.9034140552969540e-01  -2.9293758268596776e-01  -2.9604931671968893e-01  -2.9841147016952030e-01  -2.9988201229160677e-01  -3.0110935725074228e-01  -3.0230232228353954e-01  -3.0363431850109746e-01  -3.0526427412336682e-01  -3.0750286808112920e-01  -3.1068375614756688e-01  -3.1452870220362322e-01  -3.1767609040485056e-01  -3.1801626861381033e-01  -3.1666798346957481e-01  -3.2065866408641908e-01  -3.3186379746386518e-01  -3.2271463032437370e-01  -2.4772305320705215e-01  -9.7725672502776820e-02  -9.5813469549965394e-03  2.8395289256934915e-03  7.6371364105126934e-03  -2.4817573960956890e-03  3.1954987972693579e-03  -1.9010232292138860e-02  -7.2787987762555018e-02  -1.4462258642985173e-01  -2.1035684474219149e-01  -2.4323509818703856e-01  -2.4847093918377233e-01  -2.4721899567208858e-01  -2.4883787416336256e-01  -2.5503552373111854e-01  -2.6099917779237380e-01  -2.6514208647771204e-01  -2.6834954622915497e-01  -2.7145898339122976e-01  -2.7454499289449863e-01  -2.7731781494951269e-01  -2.7970300280621979e-01  -2.8155910938555406e-01  -2.8284157855450981e-01  -2.8349847503456882e-01  -2.8395757792587933e-01  -2.8501148407989074e-01  -2.8738197138046062e-01  -2.8984366478327578e-01  -2.9100520833829346e-01  -2.9401164182499695e-01  -3.0211446548917165e-01  -2.8887642041543332e-01  -2.0496122634225783e-01  -4.7606182551817630e-02  4.6900758445536294e-03  -1.5621771792980330e-02  4.6989955632413790e-03  3.4663905323050431e-03  -3.2123794270690474e-02  -9.3601350396945740e-02  -1.6016799497852235e-01  -2.0621931311113390e-01  -2.2171588906654507e-01  -2.2470490781008290e-01  -2.2725351478953956e-01  -2.3209962973646842e-01  -2.3577989080021197e-01  -2.3660612697609495e-01  -2.3781084784403153e-01  -2.3996346438614649e-01  -2.4244998318541608e-01  -2.4462846924281378e-01  -2.4665728146837954e-01  -2.4873474194021838e-01  -2.5102267389190552e-01  -2.5367981251024058e-01  -2.5659094736151822e-01  -2.5942712088893938e-01  -2.6129440844642410e-01  -2.6166346670220109e-01  -2.6085226609925194e-01  -2.6030520821442704e-01  -2.6158291865946165e-01  -2.6732464129882560e-01  -2.7325012062231713e-01  -2.4758283737246881e-01  -1.3609487723974986e-01  -1.4957008873359622e-02  1.7385299468477920e-02  7.8875559185583055e-04  3.5295437059072836e-03  -3.8918176877103743e-02  -1.0089454892001500e-01  -1.5289966638850055e-01  -1.7909307869385060e-01  -1.8277282271226086e-01  -1.8210019371365482e-01  -1.8548945885315199e-01  -1.9022942420780656e-01  -1.9370988341250789e-01  -1.9833996684486260e-01  -2.0420468218392940e-01  -2.0868008750885497e-01  -2.1194870341097530e-01  -2.1473542834888634e-01  -2.1746648448988856e-01  -2.1994422793048943e-01  -2.2208823720883505e-01  -2.2383030704287291e-01  -2.2529886014520911e-01  -2.2690049452838545e-01  -2.2924215616437663e-01  -2.3248303327704684e-01  -2.3545751968582027e-01  -2.3570725808888121e-01  -2.3271065629916471e-01  -2.3174640379543152e-01  -2.4026837764164094e-01  -2.4157236186732525e-01  -1.9203652075598332e-01  -4.4121149864049962e-02  1.1969662868605808e-02  -1.5595652281933724e-02  3.4875197970561898e-03  -3.9857984376369233e-02  -9.4316300348887341e-02  -1.3354452041791148e-01  -1.5056847826347719e-01  -1.5468494126350488e-01  -1.6146991450259565e-01  -1.6844606285976288e-01  -1.7289937068826722e-01  -1.7620814329745116e-01  -1.7948968044607758e-01  -1.8070476145014980e-01  -1.8125707719139525e-01  -1.8319567772850279e-01  -1.8583497846107591e-01  -1.8853006850127277e-01  -1.9112685449812875e-01  -1.9383496738654804e-01  -1.9662578510771200e-01  -1.9938770506893014e-01  -2.0161688228139249e-01  -2.0286857741532816e-01  -2.0317603042620064e-01  -2.0392560137283020e-01  -2.0624035435722243e-01  -2.0810642307326910e-01  -2.0513361979175826e-01  -2.0374329725945925e-01  -2.1232579565929857e-01  -2.0046669456650074e-01  -1.0617682122131965e-01  -2.4474381049831167e-02  -3.0966808597961428e-03  3.0970016332167900e-03  -3.3852425165779326e-02  -7.9385336832176398e-02  -1.0682969408956544e-01  -1.1632162148252378e-01  -1.1907018240106092e-01  -1.2239367410576821e-01  -1.2559977164755071e-01  -1.2893321291633114e-01  -1.3299970736230668e-01  -1.3697257485020564e-01  -1.4096423137123598e-01  -1.4661035635471245e-01  -1.5165403701156521e-01  -1.5495366638606781e-01  -1.5764262602534376e-01  -1.6018684902657043e-01  -1.6264473268350607e-01  -1.6492427175690302e-01  -1.6726313180210842e-01  -1.6991493818156292e-01  -1.7312937190905375e-01  -1.7631297542511662e-01  -1.7832055942318337e-01  -1.7845282627053000e-01  -1.7837845413236489e-01  -1.7869596359469245e-01  -1.7622262283439247e-01  -1.7804658317939168e-01  -1.8113655752921543e-01  -1.2917438099810966e-01  -8.3471431813962674e-03  2.0659633747725704e-02  3.2564555545455892e-03  -2.4910937153623375e-02  -5.9310739440277656e-02  -7.8911883456710949e-02  -8.7906908560469843e-02  -9.3745377070145366e-02  -1.0210727982508755e-01  -1.0873101151177142e-01  -1.1358803129275262e-01  -1.1740900953379343e-01  -1.2006721939017660e-01  -1.2254643622676842e-01  -1.2418849260331502e-01  -1.2430232138094688e-01  -1.2564056724781147e-01  -1.2840644358618866e-01  -1.3139592886510740e-01  -1.3442850533694187e-01  -1.3743077380979210e-01  -1.4028271204415643e-01  -1.4263802688319718e-01  -1.4446505070342311e-01  -1.4602635296101235e-01  -1.4815382034559207e-01  -1.5106768854394420e-01  -1.5293192143519677e-01  -1.5244227842806182e-01  -1.4905418464555564e-01  -1.4740878968453094e-01  -1.5076096042800155e-01  -1.2765906151455453e-01  -1.6126530055615408e-02  2.5075919707171376e-02  2.7903887429864154e-03  -1.3156684920281440e-02  -3.7975879537649915e-02  -5.1143637490350939e-02  -5.6869969790966798e-02  -6.1139958718063894e-02  -6.4081558954825035e-02  -6.6067491890764787e-02  -6.8879774287796292e-02  -7.2038069294556209e-02  -7.5486810529396792e-02  -7.9489877861467509e-02  -8.3251819985895190e-02  -8.8034523726257100e-02  -9.3556570700080111e-02  -9.7226780660453135e-02  -9.9908317990296494e-02  -1.0264774341554396e-01  -1.0548040934807947e-01  -1.0859307809131308e-01  -1.1202933730181501e-01  -1.1582287231751386e-01  -1.1954791705625199e-01  -1.2200506032155568e-01  -1.2323101564446187e-01  -1.2447386737910539e-01  -1.2692314000165411e-01  -1.2647028817910219e-01  -1.2151475518944255e-01  -1.2269186931793037e-01  -1.1240034451478985e-01  -1.9909324866593976e-02  2.2136290428093341e-02  2.9972360166357383e-03  -1.6082722396014249e-03  -1.6095175088453491e-02  -2.4774491336208574e-02  -3.1499024933750661e-02  -3.7436570179985564e-02  -4.4460552748504252e-02  -5.0611920930954159e-02  -5.5203721611161910e-02  -5.8598567930115517e-02  -6.1331207301199925e-02  -6.3336720164749213e-02  -6.4804344952212323e-02  -6.6350608485342619e-02  -6.6702821661558165e-02  -6.7272642587792184e-02  -7.0058039076458981e-02  -7.3453738589878234e-02  -7.6784682607819718e-02  -8.0120209027651212e-02  -8.3311243491817455e-02  -8.6097465499579071e-02  -8.9169565886432156e-02  -9.2957260793031724e-02  -9.7274780460594151e-02  -1.0014526427149059e-01  -1.0123989587631863e-01  -1.0242161955028305e-01  -1.0038596090339910e-01  -9.9883587645133970e-02  -1.0342265139278517e-01  -4.1500779274825726e-02  1.4200460215233409e-02  2.2468924580426406e-03  1.0541824405959630e-02  4.9078192626400997e-03  4.9547024718850439e-04  -2.9073353765444567e-03  -6.3222275827069805e-03  -7.2744246005281574e-03  -7.9498138200273100e-03  -9.4793688826442495e-03  -1.1624758171368973e-02  -1.4200063768256183e-02  -1.7150063267571396e-02  -2.0665634978995588e-02  -2.4464471200393318e-02  -2.8524059775995959e-02  -3.3968719981409989e-02  -3.8587049614909545e-02  -4.1525134732666329e-02  -4.4864614887454066e-02  -4.8552514643347242e-02  -5.2935591371604300e-02  -5.7711583735397899e-02  -6.2454514476939588e-02  -6.6335000251408524e-02  -6.9603245096354613e-02  -7.3476482345686711e-02  -7.7899953994824758e-02  -8.1380961023598902e-02  -8.1345235528330409e-02  -8.1943329283709176e-02  -9.1869991428458489e-02  -6.1037729763087793e-02  3.3874003758326576e-03  2.0775125248245967e-03  2.0860958433857688e-02  2.5483041179262145e-02  2.4791122247414900e-02  2.0702781809818001e-02  1.6129531240269026e-02  1.0985848512932187e-02  5.8152490363641120e-03  2.1437733550778537e-03  -5.2080658319475504e-04  -2.5551963486287969e-03  -4.0261388702477032e-03  -5.1430211908036882e-03  -5.9696884200680063e-03  -6.9597958153111835e-03  -7.8299661047894903e-03  -8.2006849566137793e-03  -1.0565422113684551e-02  -1.4908093296195930e-02  -1.8880088182028774e-02  -2.3061328541637213e-02  -2.7305230271526364e-02  -3.2081967640639628e-02  -3.7860767195302625e-02  -4.4199803314983507e-02  -4.9618060804315883e-02  -5.3699237898482369e-02  -5.8951876418185389e-02  -6.3752358786339683e-02  -6.5555893839191220e-02  -8.1928898394071026e-02  -7.1924847047360282e-02  -2.3367363247632205e-03  4.0548212540334822e-04  2.9889825476833210e-02  4.4525139128643768e-02  4.8462073555403343e-02  4.8534433837158650e-02  4.6797773210376051e-02  4.8245478202511245e-02  4.9361535010074717e-02  4.9339605928082605e-02  4.8526310412319813e-02  4.7177511393502451e-02  4.5262034588306875e-02  4.2739968162822863e-02  3.9718498905855576e-02  3.6135857716251440e-02  3.2232157290345315e-02  2.7124720231589163e-02  2.1405571979366392e-02  1.7249945419198505e-02  1.3255172313160656e-02  7.6991742416187073e-03  1.6734905890575939e-03  -4.6978412901956370e-03  -1.0685333720349096e-02  -1.6560506915838248e-02  -2.3586347955682919e-02  -3.1484632604468987e-02  -3.8515940922132570e-02  -4.5561475039583028e-02  -4.9540388549448727e-02  -6.5001392471811179e-02  -6.7324432189875438e-02  -5.7948524949994282e-03  -1.1554578574895277e-03  3.4277852860481253e-02  6.2129661950446828e-02  7.1417049916425238e-02  7.1530599028030203e-02  6.8367303798934478e-02  6.4695808825127113e-02  6.0961145649493766e-02  5.8439730551250818e-02  5.6868188047709975e-02  5.5835832041818113e-02  5.5302428793389771e-02  5.5067342032934299e-02  5.4948192259523444e-02  5.4535293483476972e-02  5.3971835613704909e-02  5.2785042030338472e-02  5.1658437611307881e-02  4.9376071462579135e-02  4.4183548181508638e-02  3.8415486495686942e-02  3.2934761077992973e-02  2.6109770697612139e-02  1.8123384424570607e-02  9.1198379797255355e-03  5.6233560967106609e-04  -7.5304518177908581e-03  -1.6580434954047769e-02  -2.7334321408281074e-02  -3.3453694674871179e-02  -5.0298900951007475e-02  -5.8757079223221036e-02  -6.0303160742984146e-03  -5.0448859587952479e-03  3.4012492549488266e-02  7.6487275407982280e-02  9.3914978008446448e-02  9.9943789554478260e-02  9.9952331754896720e-02  1.0325027976991841e-01  1.0641445680670764e-01  1.0789793357606489e-01  1.0858060888971846e-01  1.0866802617940881e-01  1.0810413967633729e-01  1.0672977179930244e-01  1.0482573186334335e-01  1.0209933734579997e-01  9.8773548834904065e-02  9.4632202396177201e-02  8.9468162109885591e-02  8.2815201014912229e-02  7.6275092847516532e-02  7.0648903001229571e-02  6.3299908401334343e-02  5.4531202481358634e-02  4.6280017019549272e-02  3.7309534487115138e-02  2.6965098449353568e-02  1.5008703189820217e-02  3.9486797114956394e-03  -8.3086924067531272e-03  -1.7365633693245654e-02  -3.2503728675270065e-02  -4.6697362102246232e-02  -7.0129284547634464e-03  -8.4228563205184862e-03  2.7241679612335645e-02  8.7196546822693746e-02  1.1461176442767906e-01  1.2269923460262593e-01  1.2108263993894583e-01  1.1720865243777848e-01  1.1485392994304899e-01  1.1366970768055672e-01  1.1333031304519639e-01  1.1355232259522106e-01  1.1446027076615366e-01  1.1549906560525801e-01  1.1662271924037673e-01  1.1732968735804614e-01  1.1735039352000631e-01  1.1653673375945599e-01  1.1489259673541297e-01  1.1249780975858875e-01  1.0928221442833221e-01  1.0344784129050361e-01  9.5126425311770360e-02  8.6532444420091684e-02  7.6560340857622033e-02  6.4112758755537055e-02  5.2062321299993400e-02  3.9641285685482065e-02  2.6091812837937656e-02  1.0567152734941713e-02  -1.7397471021220895e-03  -1.9841219194308847e-02  -3.7946922449600101e-02  -6.5979174991265240e-03  -1.1421179437778765e-02  1.9369461606629230e-02  9.1158651575312735e-02  1.3315441922277133e-01  1.5135716190400814e-01  1.5501811718251204e-01  1.5866136207144849e-01  1.6298003146128290e-01  1.6611138364980993e-01  1.6849431531748893e-01  1.7022305170967808e-01  1.7139132753311812e-01  1.7166458819690672e-01  1.7107003188095021e-01  1.6970204998586882e-01  1.6742371334899331e-01  1.6407679708038111e-01  1.5949035423076169e-01  1.5340943335685722e-01  1.4557233075358147e-01  1.3631753291976750e-01  1.2717533239178552e-01  1.1752785178289481e-01  1.0603031128095759e-01  9.3473982620304347e-02  7.9998315994967928e-02  6.3367578250899878e-02  4.7219235748694938e-02  3.0027794137513018e-02  1.3874845616174560e-02  -5.2673684630285570e-03  -2.9129594247575025e-02  -7.5479694447384334e-03  -7.7740331903068637e-03  1.3006262588119929e-02  8.5317719633869485e-02  1.4378814424612602e-01  1.6961674134040169e-01  1.7447092418216292e-01  1.6931622672178576e-01  1.6668366831997214e-01  1.6682222607697036e-01  1.6815092209003274e-01  1.7009712495801946e-01  1.7287642617272569e-01  1.7614695860966462e-01  1.7919771224074907e-01  1.8154212714004875e-01  1.8289535003894516e-01  1.8301487550128434e-01  1.8175959770401892e-01  1.7906646228369777e-01  1.7502008394602658e-01  1.6968416853114363e-01  1.6229984598268610e-01  1.5166114800421288e-01  1.3806853660228333e-01  1.2286688612986114e-01  1.0699882853756264e-01  8.9207530190804837e-02  7.0559198017275587e-02  4.9635279839514754e-02  2.9111016695579119e-02  4.4282967544479702e-03  -2.4090940811462687e-02  -7.3999062989404335e-03  -9.6527463695740638e-05  1.0911195863298714e-02  6.4880539051498640e-02  1.4404700330004219e-01  1.9001419882180573e-01  2.0858892902769496e-01  2.1534476217758791e-01  2.1850432919327364e-01  2.2255982551905076e-01  2.2734148213003202e-01  2.3174317543023421e-01  2.3518187919299555e-01  2.3768712327739480e-01  2.3937153537892561e-01  2.3994537833605978e-01  2.3929493516862632e-0