<?xml version="1.0"?>
<VTKFile type="UnstructuredGrid"  version="0.1"  >
<UnstructuredGrid>
<Piece  NumberOfPoints="81" NumberOfCells="64">
<Points>
<DataArray  type="Float64"  NumberOfComponents="3"  format="ascii">0 0 0  0.125 0 0  0.25 0 0  0.375 0 0  0.5 0 0  0.625 0 0  0.75 0 0  0.875 0 0  1 0 0  0 0.125 0  0.125 0.125 0  0.25 0.125 0  0.375 0.125 0  0.5 0.125 0  0.625 0.125 0  0.75 0.125 0  0.875 0.125 0  1 0.125 0  0 0.25 0  0.125 0.25 0  0.25 0.25 0  0.375 0.25 0  0.5 0.25 0  0.625 0.25 0  0.75 0.25 0  0.875 0.25 0  1 0.25 0  0 0.375 0  0.125 0.375 0  0.25 0.375 0  0.375 0.375 0  0.5 0.375 0  0.625 0.375 0  0.75 0.375 0  0.875 0.375 0  1 0.375 0  0 0.5 0  0.125 0.5 0  0.25 0.5 0  0.375 0.5 0  0.5 0.5 0  0.625 0.5 0  0.75 0.5 0  0.875 0.5 0  1 0.5 0  0 0.625 0  0.125 0.625 0  0.25 0.625 0  0.375 0.625 0  0.5 0.625 0  0.625 0.625 0  0.75 0.625 0  0.875 0.625 0  1 0.625 0  0 0.75 0  0.125 0.75 0  0.25 0.75 0  0.375 0.75 0  0.5 0.75 0  0.625 0.75 0  0.75 0.75 0  0.875 0.75 0  1 0.75 0  0 0.875 0  0.125 0.875 0  0.25 0.875 0  0.375 0.875 0  0.5 0.875 0  0.625 0.875 0  0.75 0.875 0  0.875 0.875 0  1 0.875 0  0 1 0  0.125 1 0  0.25 1 0  0.375 1 0  0.5 1 0  0.625 1 0  0.75 1 0  0.875 1 0  1 1 0  </DataArray>
</Points>
<Cells>
<DataArray  type="UInt32"  Name="connectivity"  format="ascii">0 1 10 9  1 2 11 10  2 3 12 11  3 4 13 12  4 5 14 13  5 6 15 14  6 7 16 15  7 8 17 16  9 10 19 18  10 11 20 19  11 12 21 20  12 13 22 21  13 14 23 22  14 15 24 23  15 16 25 24  16 17 26 25  18 19 28 27  19 20 29 28  20 21 30 29  21 22 31 30  22 23 32 31  23 24 33 32  24 25 34 33  25 26 35 34  27 28 37 36  28 29 38 37  29 30 39 38  30 31 40 39  31 32 41 40  32 33 42 41  33 34 43 42  34 35 44 43  36 37 46 45  37 38 47 46  38 39 48 47  39 40 49 48  40 41 50 49  41 42 51 50  42 43 52 51  43 44 53 52  45 46 55 54  46 47 56 55  47 48 57 56  48 49 58 57  49 50 59 58  50 51 60 59  51 52 61 60  52 53 62 61  54 55 64 63  55 56 65 64  56 57 66 65  57 58 67 66  58 59 68 67  59 60 69 68  60 61 70 69  61 62 71 70  63 64 73 72  64 65 74 73  65 66 75 74  66 67 76 75  67 68 77 76  68 69 78 77  69 70 79 78  70 71 80 79  </DataArray>
<DataArray  type="UInt32"  Name="offsets"  format="ascii">4 8 12 16 20 24 28 32 36 40 44 48 52 56 60 64 68 72 76 80 84 88 92 96 100 104 108 112 116 120 124 128 132 136 140 144 148 152 156 160 164 168 172 176 180 184 188 192 196 200 204 208 212 216 220 224 228 232 236 240 244 248 252 256 </DataArray>
<DataArray  type="UInt8"  Name="types"  format="ascii">9 9 9 9 9 9 9 9 9 9 9 9 9 9 9 9 9 9 9 9 9 9 9 9 9 9 9 9 9 9 9 9 9 9 9 9 9 9 9 9 9 9 9 9 9 9 9 9 9 9 9 9 9 9 9 9 9 9 9 9 9 9 9 9 </DataArray>
</Cells>
<PointData  Scalars="u_sol"> 
<DataArray  type="Float64"  Name="u_sol"  format="ascii">-3.4513567157925218e-05  1.7362570577145531e-04  6.5084154384339066e-04  1.1731691069121373e-03  1.5236406504275791e-03  1.5229314828978176e-03  1.1054858740162446e-03  3.9327599659915130e-04  -7.5627280820705651e-05  -4.1920762594227436e-04  2.1089224049154333e-03  7.9049695570565567e-03  1.4248569179184196e-02  1.8504400414352942e-02  1.8494978828536623e-02  1.3422682729834197e-02  4.7741894599633286e-03  -9.1808509766069888e-04  -4.6479686707623911e-04  2.3382745501500067e-03  8.7645691948217887e-03  1.5797842506411908e-02  2.0516201489577567e-02  2.0505445083145845e-02  1.4881167256610775e-02  5.2926989845333058e-03  -1.0177999097700052e-03  -2.8834011346766890e-04  1.4505644495939175e-03  5.4371508302156844e-03  9.8002554585278345e-03  1.2727267835159366e-02  1.2720506587409728e-02  9.2314974694639972e-03  3.2833122037075448e-03  -6.3139021947810291e-04  -1.2128891850154411e-09  6.3781043374848585e-09  1.8302567293877227e-08  3.2764860286775641e-08  5.0039441498381230e-08  6.2235010396204834e-08  9.9578331470753069e-08  8.4497588321370991e-08  -1.4149340111678160e-08  2.8833871713083038e-04  -1.4505570821266682e-03  -5.4371296059639983e-03  -9.8002174401222459e-03  -1.2727209301297334e-02  -1.2720430942274725e-02  -9.2313838872850398e-03  -3.2832222310560386e-03  6.3137498769737905e-04  4.6479717586862915e-04  -2.3382764074543132e-03  -8.7645708465178742e-03  -1.5797847619666277e-02  -2.0516223013657100e-02  -2.0505485110328573e-02  -1.4881237870729798e-02  -5.2927608008544293e-03  1.0178101969419088e-03  4.1920961377967436e-04  -2.1089327597984555e-03  -7.9050013343009429e-03  -1.4248624933846283e-02  -1.8504478714886814e-02  -1.8495072180901496e-02  -1.3422820497470083e-02  -4.7742984031994987e-03  9.1810355437778877e-04  3.4514192356711270e-05  -1.7362877302116192e-04  -6.5085374043994738e-04  -1.1731889384575182e-03  -1.5236581481566848e-03  -1.5229404836836257e-03  -1.1054954306947537e-03  -3.9328341738208898e-04  7.5628555272303874e-05  </DataArray> 
</PointData> 
</Piece>
</UnstructuredGrid>
</VTKFile>