<?xml version="1.0"?>
<VTKFile type="UnstructuredGrid"  version="0.1"  >
<UnstructuredGrid>
<Piece  NumberOfPoints="81" NumberOfCells="64">
<Points>
<DataArray  type="Float64"  NumberOfComponents="3"  format="ascii">0 0 0  0.125 0 0  0.25 0 0  0.375 0 0  0.5 0 0  0.625 0 0  0.75 0 0  0.875 0 0  1 0 0  0 0.125 0  0.125 0.125 0  0.25 0.125 0  0.375 0.125 0  0.5 0.125 0  0.625 0.125 0  0.75 0.125 0  0.875 0.125 0  1 0.125 0  0 0.25 0  0.125 0.25 0  0.25 0.25 0  0.375 0.25 0  0.5 0.25 0  0.625 0.25 0  0.75 0.25 0  0.875 0.25 0  1 0.25 0  0 0.375 0  0.125 0.375 0  0.25 0.375 0  0.375 0.375 0  0.5 0.375 0  0.625 0.375 0  0.75 0.375 0  0.875 0.375 0  1 0.375 0  0 0.5 0  0.125 0.5 0  0.25 0.5 0  0.375 0.5 0  0.5 0.5 0  0.625 0.5 0  0.75 0.5 0  0.875 0.5 0  1 0.5 0  0 0.625 0  0.125 0.625 0  0.25 0.625 0  0.375 0.625 0  0.5 0.625 0  0.625 0.625 0  0.75 0.625 0  0.875 0.625 0  1 0.625 0  0 0.75 0  0.125 0.75 0  0.25 0.75 0  0.375 0.75 0  0.5 0.75 0  0.625 0.75 0  0.75 0.75 0  0.875 0.75 0  1 0.75 0  0 0.875 0  0.125 0.875 0  0.25 0.875 0  0.375 0.875 0  0.5 0.875 0  0.625 0.875 0  0.75 0.875 0  0.875 0.875 0  1 0.875 0  0 1 0  0.125 1 0  0.25 1 0  0.375 1 0  0.5 1 0  0.625 1 0  0.75 1 0  0.875 1 0  1 1 0  </DataArray>
</Points>
<Cells>
<DataArray  type="UInt32"  Name="connectivity"  format="ascii">0 1 10 9  1 2 11 10  2 3 12 11  3 4 13 12  4 5 14 13  5 6 15 14  6 7 16 15  7 8 17 16  9 10 19 18  10 11 20 19  11 12 21 20  12 13 22 21  13 14 23 22  14 15 24 23  15 16 25 24  16 17 26 25  18 19 28 27  19 20 29 28  20 21 30 29  21 22 31 30  22 23 32 31  23 24 33 32  24 25 34 33  25 26 35 34  27 28 37 36  28 29 38 37  29 30 39 38  30 31 40 39  31 32 41 40  32 33 42 41  33 34 43 42  34 35 44 43  36 37 46 45  37 38 47 46  38 39 48 47  39 40 49 48  40 41 50 49  41 42 51 50  42 43 52 51  43 44 53 52  45 46 55 54  46 47 56 55  47 48 57 56  48 49 58 57  49 50 59 58  50 51 60 59  51 52 61 60  52 53 62 61  54 55 64 63  55 56 65 64  56 57 66 65  57 58 67 66  58 59 68 67  59 60 69 68  60 61 70 69  61 62 71 70  63 64 73 72  64 65 74 73  65 66 75 74  66 67 76 75  67 68 77 76  68 69 78 77  69 70 79 78  70 71 80 79  </DataArray>
<DataArray  type="UInt32"  Name="offsets"  format="ascii">4 8 12 16 20 24 28 32 36 40 44 48 52 56 60 64 68 72 76 80 84 88 92 96 100 104 108 112 116 120 124 128 132 136 140 144 148 152 156 160 164 168 172 176 180 184 188 192 196 200 204 208 212 216 220 224 228 232 236 240 244 248 252 256 </DataArray>
<DataArray  type="UInt8"  Name="types"  format="ascii">9 9 9 9 9 9 9 9 9 9 9 9 9 9 9 9 9 9 9 9 9 9 9 9 9 9 9 9 9 9 9 9 9 9 9 9 9 9 9 9 9 9 9 9 9 9 9 9 9 9 9 9 9 9 9 9 9 9 9 9 9 9 9 9 </DataArray>
</Cells>
<PointData  Scalars="v_sol"> 
<DataArray  type="Float64"  Name="v_sol"  format="ascii">1.8050811684024601e-05  4.4789307147929654e-04  6.3551509202497479e-04  5.5769990030419300e-04  2.3492187894013288e-04  -2.5118235276635586e-04  -7.1750154226382732e-04  -8.6008429430834430e-04  -1.1257431862654946e-04  -9.2188566403918361e-05  -2.2875316120087503e-03  -3.2457805402836032e-03  -2.8483691883709637e-03  -1.1998290302494899e-03  1.2828294690967656e-03  3.6644881290398804e-03  4.3928020324688925e-03  5.7497004355273711e-04  -2.9896119099144655e-04  -7.4175403089072620e-03  -1.0524669317801839e-02  -9.2358192836405305e-03  -3.8903418032520806e-03  4.1602446656594638e-03  1.1882646867569215e-02  1.4242908750279585e-02  1.8641020357336264e-03  -4.7121617476108310e-04  -1.1691077749650027e-02  -1.6588264852585646e-02  -1.4556749853875948e-02  -6.1314853943205475e-03  6.5574463144591894e-03  1.8728714008736026e-02  2.2448086492299037e-02  2.9378782041447841e-03  -5.3708989413696459e-04  -1.3325336181522016e-02  -1.8907057792260221e-02  -1.6591536214532784e-02  -6.9885079232054840e-03  7.4741633613620980e-03  2.1346681338786058e-02  2.5585870309879445e-02  3.3485360427528222e-03  -4.7121905473870938e-04  -1.1691097452045664e-02  -1.6588285006978551e-02  -1.4556780949397932e-02  -6.1315075267260877e-03  6.5574094192488728e-03  1.8728648273333974e-02  2.2448237638118918e-02  2.9379702245794590e-03  -2.9896445026593411e-04  -7.4175656693660731e-03  -1.0524696839650597e-02  -9.2358554477890466e-03  -3.8903646634929610e-03  4.1602050294482955e-03  1.1882581689354471e-02  1.4243078054292523e-02  1.8642001310681139e-03  -9.2189624210366672e-05  -2.2875460636556460e-03  -3.2457982809414613e-03  -2.8483838893606506e-03  -1.1998290835468720e-03  1.2828213595548735e-03  3.6644664603281505e-03  4.3928623732814526e-03  5.7500387056039486e-04  1.8051033435888570e-05  4.4789564068433487e-04  6.3551816574486429e-04  5.5770275427728438e-04  2.3492245993809690e-04  -2.5118029725958711e-04  -7.1749720203069425e-04  -8.6009646781113800e-04  -1.1258114066226604e-04  </DataArray> 
</PointData> 
</Piece>
</UnstructuredGrid>
</VTKFile>