<?xml version="1.0"?>
<VTKFile type="UnstructuredGrid"  version="0.1"  >
<UnstructuredGrid>
<Piece  NumberOfPoints="81" NumberOfCells="64">
<Points>
<DataArray  type="Float64"  NumberOfComponents="3"  format="ascii">0 0 0  0.125 0 0  0.25 0 0  0.375 0 0  0.5 0 0  0.625 0 0  0.75 0 0  0.875 0 0  1 0 0  0 0.125 0  0.125 0.125 0  0.25 0.125 0  0.375 0.125 0  0.5 0.125 0  0.625 0.125 0  0.75 0.125 0  0.875 0.125 0  1 0.125 0  0 0.25 0  0.125 0.25 0  0.25 0.25 0  0.375 0.25 0  0.5 0.25 0  0.625 0.25 0  0.75 0.25 0  0.875 0.25 0  1 0.25 0  0 0.375 0  0.125 0.375 0  0.25 0.375 0  0.375 0.375 0  0.5 0.375 0  0.625 0.375 0  0.75 0.375 0  0.875 0.375 0  1 0.375 0  0 0.5 0  0.125 0.5 0  0.25 0.5 0  0.375 0.5 0  0.5 0.5 0  0.625 0.5 0  0.75 0.5 0  0.875 0.5 0  1 0.5 0  0 0.625 0  0.125 0.625 0  0.25 0.625 0  0.375 0.625 0  0.5 0.625 0  0.625 0.625 0  0.75 0.625 0  0.875 0.625 0  1 0.625 0  0 0.75 0  0.125 0.75 0  0.25 0.75 0  0.375 0.75 0  0.5 0.75 0  0.625 0.75 0  0.75 0.75 0  0.875 0.75 0  1 0.75 0  0 0.875 0  0.125 0.875 0  0.25 0.875 0  0.375 0.875 0  0.5 0.875 0  0.625 0.875 0  0.75 0.875 0  0.875 0.875 0  1 0.875 0  0 1 0  0.125 1 0  0.25 1 0  0.375 1 0  0.5 1 0  0.625 1 0  0.75 1 0  0.875 1 0  1 1 0  </DataArray>
</Points>
<Cells>
<DataArray  type="UInt32"  Name="connectivity"  format="ascii">0 1 10 9  1 2 11 10  2 3 12 11  3 4 13 12  4 5 14 13  5 6 15 14  6 7 16 15  7 8 17 16  9 10 19 18  10 11 20 19  11 12 21 20  12 13 22 21  13 14 23 22  14 15 24 23  15 16 25 24  16 17 26 25  18 19 28 27  19 20 29 28  20 21 30 29  21 22 31 30  22 23 32 31  23 24 33 32  24 25 34 33  25 26 35 34  27 28 37 36  28 29 38 37  29 30 39 38  30 31 40 39  31 32 41 40  32 33 42 41  33 34 43 42  34 35 44 43  36 37 46 45  37 38 47 46  38 39 48 47  39 40 49 48  40 41 50 49  41 42 51 50  42 43 52 51  43 44 53 52  45 46 55 54  46 47 56 55  47 48 57 56  48 49 58 57  49 50 59 58  50 51 60 59  51 52 61 60  52 53 62 61  54 55 64 63  55 56 65 64  56 57 66 65  57 58 67 66  58 59 68 67  59 60 69 68  60 61 70 69  61 62 71 70  63 64 73 72  64 65 74 73  65 66 75 74  66 67 76 75  67 68 77 76  68 69 78 77  69 70 79 78  70 71 80 79  </DataArray>
<DataArray  type="UInt32"  Name="offsets"  format="ascii">4 8 12 16 20 24 28 32 36 40 44 48 52 56 60 64 68 72 76 80 84 88 92 96 100 104 108 112 116 120 124 128 132 136 140 144 148 152 156 160 164 168 172 176 180 184 188 192 196 200 204 208 212 216 220 224 228 232 236 240 244 248 252 256 </DataArray>
<DataArray  type="UInt8"  Name="types"  format="ascii">9 9 9 9 9 9 9 9 9 9 9 9 9 9 9 9 9 9 9 9 9 9 9 9 9 9 9 9 9 9 9 9 9 9 9 9 9 9 9 9 9 9 9 9 9 9 9 9 9 9 9 9 9 9 9 9 9 9 9 9 9 9 9 9 </DataArray>
</Cells>
<PointData  Scalars="u_sol"> 
<DataArray  type="Float64"  Name="u_sol"  format="ascii">-3.5118097950180334e-05  1.7628608901180013e-04  6.6091624741247245e-04  1.1913426932297912e-03  1.5472180931692136e-03  1.5465443354323997e-03  1.1226005575490443e-03  3.9991097318304854e-04  -7.5566718654547114e-05  -4.1985575997037505e-04  2.1075898782307164e-03  7.9017347191729821e-03  1.4243296305038950e-02  1.8498083866487099e-02  1.8490006579943756e-02  1.3421390809973358e-02  4.7811015401940304e-03  -9.0346668840684651e-04  -4.6571223244270437e-04  2.3377786368842801e-03  8.7647614759177941e-03  1.5798945917118820e-02  2.0518442572666211e-02  2.0509480230334363e-02  1.4887259078035059e-02  5.3032790168556238e-03  -1.0021417254881396e-03  -2.8887540538926763e-04  1.4500943965962149e-03  5.4366681476969402e-03  9.7998832040049159e-03  1.2727324027814948e-02  1.2721765742117561e-02  9.2343732272758151e-03  3.2895553593014575e-03  -6.2161447454976704e-04  -1.2623309380210485e-10  2.3050033529006114e-10  9.5541497890233584e-11  1.0513941803768842e-09  -6.6782064860743107e-10  1.8509900548850148e-09  1.0066961604604516e-09  -5.7860925284976966e-10  7.9258833746370987e-10  2.8887529449517230e-04  -1.4500942309636240e-03  -5.4366682968318729e-03  -9.7998825253492426e-03  -1.2727324807403736e-02  -1.2721763265100021e-02  -9.2343713056159561e-03  -3.2895556379781529e-03  6.2161518978674573e-04  4.6571235396083104e-04  -2.3377788724481654e-03  -8.7647616549600960e-03  -1.5798946921844102e-02  -2.0518442156377662e-02  -2.0509481240765261e-02  -1.4887259188052362e-02  -5.3032784210943389e-03  1.0021410365891334e-03  4.1985587989239897e-04  -2.1075900496239286e-03  -7.9017345209381716e-03  -1.4243297025343280e-02  -1.8498082946998212e-02  -1.8490009655058072e-02  -1.3421393332609702e-02  -4.7811012958521651e-03  9.0346589332074767e-04  3.5118089324591890e-05  -1.7628606785674287e-04  -6.6091617946453872e-04  -1.1913427041324426e-03  -1.5472178702668697e-03  -1.5465448199503762e-03  -1.1226011481129175e-03  -3.9991093821892590e-04  7.5566670970542244e-05  </DataArray> 
</PointData> 
</Piece>
</UnstructuredGrid>
</VTKFile>