<?xml version="1.0"?>
<VTKFile type="UnstructuredGrid"  version="0.1"  >
<UnstructuredGrid>
<Piece  NumberOfPoints="81" NumberOfCells="64">
<Points>
<DataArray  type="Float64"  NumberOfComponents="3"  format="ascii">0 0 0  0.125 0 0  0.25 0 0  0.375 0 0  0.5 0 0  0.625 0 0  0.75 0 0  0.875 0 0  1 0 0  0 0.125 0  0.125 0.125 0  0.25 0.125 0  0.375 0.125 0  0.5 0.125 0  0.625 0.125 0  0.75 0.125 0  0.875 0.125 0  1 0.125 0  0 0.25 0  0.125 0.25 0  0.25 0.25 0  0.375 0.25 0  0.5 0.25 0  0.625 0.25 0  0.75 0.25 0  0.875 0.25 0  1 0.25 0  0 0.375 0  0.125 0.375 0  0.25 0.375 0  0.375 0.375 0  0.5 0.375 0  0.625 0.375 0  0.75 0.375 0  0.875 0.375 0  1 0.375 0  0 0.5 0  0.125 0.5 0  0.25 0.5 0  0.375 0.5 0  0.5 0.5 0  0.625 0.5 0  0.75 0.5 0  0.875 0.5 0  1 0.5 0  0 0.625 0  0.125 0.625 0  0.25 0.625 0  0.375 0.625 0  0.5 0.625 0  0.625 0.625 0  0.75 0.625 0  0.875 0.625 0  1 0.625 0  0 0.75 0  0.125 0.75 0  0.25 0.75 0  0.375 0.75 0  0.5 0.75 0  0.625 0.75 0  0.75 0.75 0  0.875 0.75 0  1 0.75 0  0 0.875 0  0.125 0.875 0  0.25 0.875 0  0.375 0.875 0  0.5 0.875 0  0.625 0.875 0  0.75 0.875 0  0.875 0.875 0  1 0.875 0  0 1 0  0.125 1 0  0.25 1 0  0.375 1 0  0.5 1 0  0.625 1 0  0.75 1 0  0.875 1 0  1 1 0  </DataArray>
</Points>
<Cells>
<DataArray  type="UInt32"  Name="connectivity"  format="ascii">0 1 10 9  1 2 11 10  2 3 12 11  3 4 13 12  4 5 14 13  5 6 15 14  6 7 16 15  7 8 17 16  9 10 19 18  10 11 20 19  11 12 21 20  12 13 22 21  13 14 23 22  14 15 24 23  15 16 25 24  16 17 26 25  18 19 28 27  19 20 29 28  20 21 30 29  21 22 31 30  22 23 32 31  23 24 33 32  24 25 34 33  25 26 35 34  27 28 37 36  28 29 38 37  29 30 39 38  30 31 40 39  31 32 41 40  32 33 42 41  33 34 43 42  34 35 44 43  36 37 46 45  37 38 47 46  38 39 48 47  39 40 49 48  40 41 50 49  41 42 51 50  42 43 52 51  43 44 53 52  45 46 55 54  46 47 56 55  47 48 57 56  48 49 58 57  49 50 59 58  50 51 60 59  51 52 61 60  52 53 62 61  54 55 64 63  55 56 65 64  56 57 66 65  57 58 67 66  58 59 68 67  59 60 69 68  60 61 70 69  61 62 71 70  63 64 73 72  64 65 74 73  65 66 75 74  66 67 76 75  67 68 77 76  68 69 78 77  69 70 79 78  70 71 80 79  </DataArray>
<DataArray  type="UInt32"  Name="offsets"  format="ascii">4 8 12 16 20 24 28 32 36 40 44 48 52 56 60 64 68 72 76 80 84 88 92 96 100 104 108 112 116 120 124 128 132 136 140 144 148 152 156 160 164 168 172 176 180 184 188 192 196 200 204 208 212 216 220 224 228 232 236 240 244 248 252 256 </DataArray>
<DataArray  type="UInt8"  Name="types"  format="ascii">9 9 9 9 9 9 9 9 9 9 9 9 9 9 9 9 9 9 9 9 9 9 9 9 9 9 9 9 9 9 9 9 9 9 9 9 9 9 9 9 9 9 9 9 9 9 9 9 9 9 9 9 9 9 9 9 9 9 9 9 9 9 9 9 </DataArray>
</Cells>
<PointData  Scalars="v_sol"> 
<DataArray  type="Float64"  Name="v_sol"  format="ascii">1.7710908405575901e-05  4.4629427546853190e-04  6.3307384779113000e-04  5.5562394808116890e-04  2.3402706749627914e-04  -2.4987635786644812e-04  -7.1511679192188475e-04  -8.5437223770361054e-04  -1.1701841122861711e-04  -9.0868815328415064e-05  -2.2897471158165963e-03  -3.2480311053935721e-03  -2.8506762301882399e-03  -1.2006862458175819e-03  1.2820013035830594e-03  3.6689635229083992e-03  4.3834184380351412e-03  6.0038367733329483e-04  -2.9449337399487419e-04  -7.4209173942439898e-03  -1.0526660316642695e-02  -9.2388368827896541e-03  -3.8913663692385827e-03  4.1549110866179947e-03  1.1890867724257688e-02  1.4206367104921914e-02  1.9457634529159704e-03  -4.6412231700848009e-04  -1.1695435919827583e-02  -1.6590117280506564e-02  -1.4560491929381584e-02  -6.1328325969206999e-03  6.5481865803615107e-03  1.8740127290782730e-02  2.2389358270243249e-02  3.0665334471006245e-03  -5.2899061621453655e-04  -1.3330068006383207e-02  -1.8908862588898206e-02  -1.6595562794188098e-02  -6.9899968782261273e-03  7.4634030799208256e-03  2.1359377682414863e-02  2.5518638209867658e-02  3.4951331528147180e-03  -4.6412201017894783e-04  -1.1695436625323505e-02  -1.6590116946622505e-02  -1.4560493303627796e-02  -6.1328291523226096e-03  6.5481778668231372e-03  1.8740137027423182e-02  2.2389353159212547e-02  3.0665379201056000e-03  -2.9449307648679346e-04  -7.4209179475069218e-03  -1.0526659844614402e-02  -9.2388382246917922e-03  -3.8913634218416620e-03  4.1549012349212681e-03  1.1890878118256397e-02  1.4206362643296781e-02  1.9457679473992612e-03  -9.0868745249198681e-05  -2.2897471898793882e-03  -3.2480309619726602e-03  -2.8506765758824141e-03  -1.2006854985285504e-03  1.2819974251296238e-03  3.6689673028359785e-03  4.3834173486253644e-03  6.0038504238225997e-04  1.7710890221847181e-05  4.4629429804222758e-04  6.3307380784188654e-04  5.5562402775391950e-04  2.3402692883008627e-04  -2.4987563477925692e-04  -7.1511750736487280e-04  -8.5437201717981925e-04  -1.1701869664624298e-04  </DataArray> 
</PointData> 
</Piece>
</UnstructuredGrid>
</VTKFile>