<?xml version="1.0"?>
<VTKFile type="UnstructuredGrid"  version="0.1"  >
<UnstructuredGrid>
<Piece  NumberOfPoints="4225" NumberOfCells="4096">
<Points>
<DataArray  type="Float64"  NumberOfComponents="3"  format="ascii">0 0 0  0.015625 0 0  0.03125 0 0  0.046875 0 0  0.0625 0 0  0.078125 0 0  0.09375 0 0  0.109375 0 0  0.125 0 0  0.140625 0 0  0.15625 0 0  0.171875 0 0  0.1875 0 0  0.203125 0 0  0.21875 0 0  0.234375 0 0  0.25 0 0  0.265625 0 0  0.28125 0 0  0.296875 0 0  0.3125 0 0  0.328125 0 0  0.34375 0 0  0.359375 0 0  0.375 0 0  0.390625 0 0  0.40625 0 0  0.421875 0 0  0.4375 0 0  0.453125 0 0  0.46875 0 0  0.484375 0 0  0.5 0 0  0.515625 0 0  0.53125 0 0  0.546875 0 0  0.5625 0 0  0.578125 0 0  0.59375 0 0  0.609375 0 0  0.625 0 0  0.640625 0 0  0.65625 0 0  0.671875 0 0  0.6875 0 0  0.703125 0 0  0.71875 0 0  0.734375 0 0  0.75 0 0  0.765625 0 0  0.78125 0 0  0.796875 0 0  0.8125 0 0  0.828125 0 0  0.84375 0 0  0.859375 0 0  0.875 0 0  0.890625 0 0  0.90625 0 0  0.921875 0 0  0.9375 0 0  0.953125 0 0  0.96875 0 0  0.984375 0 0  1 0 0  0 0.015625 0  0.015625 0.015625 0  0.03125 0.015625 0  0.046875 0.015625 0  0.0625 0.015625 0  0.078125 0.015625 0  0.09375 0.015625 0  0.109375 0.015625 0  0.125 0.015625 0  0.140625 0.015625 0  0.15625 0.015625 0  0.171875 0.015625 0  0.1875 0.015625 0  0.203125 0.015625 0  0.21875 0.015625 0  0.234375 0.015625 0  0.25 0.015625 0  0.265625 0.015625 0  0.28125 0.015625 0  0.296875 0.015625 0  0.3125 0.015625 0  0.328125 0.015625 0  0.34375 0.015625 0  0.359375 0.015625 0  0.375 0.015625 0  0.390625 0.015625 0  0.40625 0.015625 0  0.421875 0.015625 0  0.4375 0.015625 0  0.453125 0.015625 0  0.46875 0.015625 0  0.484375 0.015625 0  0.5 0.015625 0  0.515625 0.015625 0  0.53125 0.015625 0  0.546875 0.015625 0  0.5625 0.015625 0  0.578125 0.015625 0  0.59375 0.015625 0  0.609375 0.015625 0  0.625 0.015625 0  0.640625 0.015625 0  0.65625 0.015625 0  0.671875 0.015625 0  0.6875 0.015625 0  0.703125 0.015625 0  0.71875 0.015625 0  0.734375 0.015625 0  0.75 0.015625 0  0.765625 0.015625 0  0.78125 0.015625 0  0.796875 0.015625 0  0.8125 0.015625 0  0.828125 0.015625 0  0.84375 0.015625 0  0.859375 0.015625 0  0.875 0.015625 0  0.890625 0.015625 0  0.90625 0.015625 0  0.921875 0.015625 0  0.9375 0.015625 0  0.953125 0.015625 0  0.96875 0.015625 0  0.984375 0.015625 0  1 0.015625 0  0 0.03125 0  0.015625 0.03125 0  0.03125 0.03125 0  0.046875 0.03125 0  0.0625 0.03125 0  0.078125 0.03125 0  0.09375 0.03125 0  0.109375 0.03125 0  0.125 0.03125 0  0.140625 0.03125 0  0.15625 0.03125 0  0.171875 0.03125 0  0.1875 0.03125 0  0.203125 0.03125 0  0.21875 0.03125 0  0.234375 0.03125 0  0.25 0.03125 0  0.265625 0.03125 0  0.28125 0.03125 0  0.296875 0.03125 0  0.3125 0.03125 0  0.328125 0.03125 0  0.34375 0.03125 0  0.359375 0.03125 0  0.375 0.03125 0  0.390625 0.03125 0  0.40625 0.03125 0  0.421875 0.03125 0  0.4375 0.03125 0  0.453125 0.03125 0  0.46875 0.03125 0  0.484375 0.03125 0  0.5 0.03125 0  0.515625 0.03125 0  0.53125 0.03125 0  0.546875 0.03125 0  0.5625 0.03125 0  0.578125 0.03125 0  0.59375 0.03125 0  0.609375 0.03125 0  0.625 0.03125 0  0.640625 0.03125 0  0.65625 0.03125 0  0.671875 0.03125 0  0.6875 0.03125 0  0.703125 0.03125 0  0.71875 0.03125 0  0.734375 0.03125 0  0.75 0.03125 0  0.765625 0.03125 0  0.78125 0.03125 0  0.796875 0.03125 0  0.8125 0.03125 0  0.828125 0.03125 0  0.84375 0.03125 0  0.859375 0.03125 0  0.875 0.03125 0  0.890625 0.03125 0  0.90625 0.03125 0  0.921875 0.03125 0  0.9375 0.03125 0  0.953125 0.03125 0  0.96875 0.03125 0  0.984375 0.03125 0  1 0.03125 0  0 0.046875 0  0.015625 0.046875 0  0.03125 0.046875 0  0.046875 0.046875 0  0.0625 0.046875 0  0.078125 0.046875 0  0.09375 0.046875 0  0.109375 0.046875 0  0.125 0.046875 0  0.140625 0.046875 0  0.15625 0.046875 0  0.171875 0.046875 0  0.1875 0.046875 0  0.203125 0.046875 0  0.21875 0.046875 0  0.234375 0.046875 0  0.25 0.046875 0  0.265625 0.046875 0  0.28125 0.046875 0  0.296875 0.046875 0  0.3125 0.046875 0  0.328125 0.046875 0  0.34375 0.046875 0  0.359375 0.046875 0  0.375 0.046875 0  0.390625 0.046875 0  0.40625 0.046875 0  0.421875 0.046875 0  0.4375 0.046875 0  0.453125 0.046875 0  0.46875 0.046875 0  0.484375 0.046875 0  0.5 0.046875 0  0.515625 0.046875 0  0.53125 0.046875 0  0.546875 0.046875 0  0.5625 0.046875 0  0.578125 0.046875 0  0.59375 0.046875 0  0.609375 0.046875 0  0.625 0.046875 0  0.640625 0.046875 0  0.65625 0.046875 0  0.671875 0.046875 0  0.6875 0.046875 0  0.703125 0.046875 0  0.71875 0.046875 0  0.734375 0.046875 0  0.75 0.046875 0  0.765625 0.046875 0  0.78125 0.046875 0  0.796875 0.046875 0  0.8125 0.046875 0  0.828125 0.046875 0  0.84375 0.046875 0  0.859375 0.046875 0  0.875 0.046875 0  0.890625 0.046875 0  0.90625 0.046875 0  0.921875 0.046875 0  0.9375 0.046875 0  0.953125 0.046875 0  0.96875 0.046875 0  0.984375 0.046875 0  1 0.046875 0  0 0.0625 0  0.015625 0.0625 0  0.03125 0.0625 0  0.046875 0.0625 0  0.0625 0.0625 0  0.078125 0.0625 0  0.09375 0.0625 0  0.109375 0.0625 0  0.125 0.0625 0  0.140625 0.0625 0  0.15625 0.0625 0  0.171875 0.0625 0  0.1875 0.0625 0  0.203125 0.0625 0  0.21875 0.0625 0  0.234375 0.0625 0  0.25 0.0625 0  0.265625 0.0625 0  0.28125 0.0625 0  0.296875 0.0625 0  0.3125 0.0625 0  0.328125 0.0625 0  0.34375 0.0625 0  0.359375 0.0625 0  0.375 0.0625 0  0.390625 0.0625 0  0.40625 0.0625 0  0.421875 0.0625 0  0.4375 0.0625 0  0.453125 0.0625 0  0.46875 0.0625 0  0.484375 0.0625 0  0.5 0.0625 0  0.515625 0.0625 0  0.53125 0.0625 0  0.546875 0.0625 0  0.5625 0.0625 0  0.578125 0.0625 0  0.59375 0.0625 0  0.609375 0.0625 0  0.625 0.0625 0  0.640625 0.0625 0  0.65625 0.0625 0  0.671875 0.0625 0  0.6875 0.0625 0  0.703125 0.0625 0  0.71875 0.0625 0  0.734375 0.0625 0  0.75 0.0625 0  0.765625 0.0625 0  0.78125 0.0625 0  0.796875 0.0625 0  0.8125 0.0625 0  0.828125 0.0625 0  0.84375 0.0625 0  0.859375 0.0625 0  0.875 0.0625 0  0.890625 0.0625 0  0.90625 0.0625 0  0.921875 0.0625 0  0.9375 0.0625 0  0.953125 0.0625 0  0.96875 0.0625 0  0.984375 0.0625 0  1 0.0625 0  0 0.078125 0  0.015625 0.078125 0  0.03125 0.078125 0  0.046875 0.078125 0  0.0625 0.078125 0  0.078125 0.078125 0  0.09375 0.078125 0  0.109375 0.078125 0  0.125 0.078125 0  0.140625 0.078125 0  0.15625 0.078125 0  0.171875 0.078125 0  0.1875 0.078125 0  0.203125 0.078125 0  0.21875 0.078125 0  0.234375 0.078125 0  0.25 0.078125 0  0.265625 0.078125 0  0.28125 0.078125 0  0.296875 0.078125 0  0.3125 0.078125 0  0.328125 0.078125 0  0.34375 0.078125 0  0.359375 0.078125 0  0.375 0.078125 0  0.390625 0.078125 0  0.40625 0.078125 0  0.421875 0.078125 0  0.4375 0.078125 0  0.453125 0.078125 0  0.46875 0.078125 0  0.484375 0.078125 0  0.5 0.078125 0  0.515625 0.078125 0  0.53125 0.078125 0  0.546875 0.078125 0  0.5625 0.078125 0  0.578125 0.078125 0  0.59375 0.078125 0  0.609375 0.078125 0  0.625 0.078125 0  0.640625 0.078125 0  0.65625 0.078125 0  0.671875 0.078125 0  0.6875 0.078125 0  0.703125 0.078125 0  0.71875 0.078125 0  0.734375 0.078125 0  0.75 0.078125 0  0.765625 0.078125 0  0.78125 0.078125 0  0.796875 0.078125 0  0.8125 0.078125 0  0.828125 0.078125 0  0.84375 0.078125 0  0.859375 0.078125 0  0.875 0.078125 0  0.890625 0.078125 0  0.90625 0.078125 0  0.921875 0.078125 0  0.9375 0.078125 0  0.953125 0.078125 0  0.96875 0.078125 0  0.984375 0.078125 0  1 0.078125 0  0 0.09375 0  0.015625 0.09375 0  0.03125 0.09375 0  0.046875 0.09375 0  0.0625 0.09375 0  0.078125 0.09375 0  0.09375 0.09375 0  0.109375 0.09375 0  0.125 0.09375 0  0.140625 0.09375 0  0.15625 0.09375 0  0.171875 0.09375 0  0.1875 0.09375 0  0.203125 0.09375 0  0.21875 0.09375 0  0.234375 0.09375 0  0.25 0.09375 0  0.265625 0.09375 0  0.28125 0.09375 0  0.296875 0.09375 0  0.3125 0.09375 0  0.328125 0.09375 0  0.34375 0.09375 0  0.359375 0.09375 0  0.375 0.09375 0  0.390625 0.09375 0  0.40625 0.09375 0  0.421875 0.09375 0  0.4375 0.09375 0  0.453125 0.09375 0  0.46875 0.09375 0  0.484375 0.09375 0  0.5 0.09375 0  0.515625 0.09375 0  0.53125 0.09375 0  0.546875 0.09375 0  0.5625 0.09375 0  0.578125 0.09375 0  0.59375 0.09375 0  0.609375 0.09375 0  0.625 0.09375 0  0.640625 0.09375 0  0.65625 0.09375 0  0.671875 0.09375 0  0.6875 0.09375 0  0.703125 0.09375 0  0.71875 0.09375 0  0.734375 0.09375 0  0.75 0.09375 0  0.765625 0.09375 0  0.78125 0.09375 0  0.796875 0.09375 0  0.8125 0.09375 0  0.828125 0.09375 0  0.84375 0.09375 0  0.859375 0.09375 0  0.875 0.09375 0  0.890625 0.09375 0  0.90625 0.09375 0  0.921875 0.09375 0  0.9375 0.09375 0  0.953125 0.09375 0  0.96875 0.09375 0  0.984375 0.09375 0  1 0.09375 0  0 0.109375 0  0.015625 0.109375 0  0.03125 0.109375 0  0.046875 0.109375 0  0.0625 0.109375 0  0.078125 0.109375 0  0.09375 0.109375 0  0.109375 0.109375 0  0.125 0.109375 0  0.140625 0.109375 0  0.15625 0.109375 0  0.171875 0.109375 0  0.1875 0.109375 0  0.203125 0.109375 0  0.21875 0.109375 0  0.234375 0.109375 0  0.25 0.109375 0  0.265625 0.109375 0  0.28125 0.109375 0  0.296875 0.109375 0  0.3125 0.109375 0  0.328125 0.109375 0  0.34375 0.109375 0  0.359375 0.109375 0  0.375 0.109375 0  0.390625 0.109375 0  0.40625 0.109375 0  0.421875 0.109375 0  0.4375 0.109375 0  0.453125 0.109375 0  0.46875 0.109375 0  0.484375 0.109375 0  0.5 0.109375 0  0.515625 0.109375 0  0.53125 0.109375 0  0.546875 0.109375 0  0.5625 0.109375 0  0.578125 0.109375 0  0.59375 0.109375 0  0.609375 0.109375 0  0.625 0.109375 0  0.640625 0.109375 0  0.65625 0.109375 0  0.671875 0.109375 0  0.6875 0.109375 0  0.703125 0.109375 0  0.71875 0.109375 0  0.734375 0.109375 0  0.75 0.109375 0  0.765625 0.109375 0  0.78125 0.109375 0  0.796875 0.109375 0  0.8125 0.109375 0  0.828125 0.109375 0  0.84375 0.109375 0  0.859375 0.109375 0  0.875 0.109375 0  0.890625 0.109375 0  0.90625 0.109375 0  0.921875 0.109375 0  0.9375 0.109375 0  0.953125 0.109375 0  0.96875 0.109375 0  0.984375 0.109375 0  1 0.109375 0  0 0.125 0  0.015625 0.125 0  0.03125 0.125 0  0.046875 0.125 0  0.0625 0.125 0  0.078125 0.125 0  0.09375 0.125 0  0.109375 0.125 0  0.125 0.12
[...]
<PointData  Scalars="u_sol"> 
<DataArray  type="Float64"  Name="u_sol"  format="ascii">1.0587911840678757e-22  -1.6940658945086011e-21  7.1997800516615544e-21  7.2756481023471115e-22  -2.7286945514696292e-20  3.3881317890172020e-20  -8.9785492408955836e-20  1.5391840392993564e-19  -2.0110992685530960e-19  1.1858461261560207e-19  -2.4648658765100145e-19  1.2859018930504347e-19  3.4732321304366578e-19  -2.3039296165316974e-19  -4.8450284582945989e-19  5.4210065587775521e-19  -2.4394538121798920e-19  6.7762635780344008e-19  -6.0986372202309504e-20  -7.6947649302132866e-19  -2.4131174573886995e-19  4.2012834183813306e-19  -7.5555338895083619e-19  -8.4660555752549260e-19  4.2849182387847396e-19  -4.0657581468206440e-20  -1.0740377771184536e-18  8.7953783660518373e-19  2.1379640984290579e-19  1.3552527156068817e-20  2.1345230270808388e-19  1.0475142597491007e-18  -1.3460807374227791e-18  1.9922214919421144e-18  -1.3654171109739329e-18  -1.7015568421358813e-18  2.0854877603686943e-19  -7.7249404789592152e-19  -8.9107866051152492e-19  1.2491538977761313e-18  3.3823282904726934e-19  2.0328790734103199e-19  -7.0134328032656097e-19  -3.3643089873756754e-20  -6.4211053102286338e-19  1.2197274440461930e-19  -4.6417405509535678e-19  2.1681037938860083e-19  -2.7104302934425103e-19  -2.8460307027744487e-19  -2.5410988417629025e-19  -2.2559531410036237e-19  1.1406010010105950e-18  -8.2670415652019675e-19  5.3193669087570042e-19  -2.8289889290060438e-19  7.0724723225151082e-20  -1.3552527156068793e-20  -2.6766241133235891e-19  1.5095934389025988e-19  1.6470272651710380e-20  -1.3658406274475584e-20  4.4072183036825284e-20  -6.8001859243629187e-21  1.6940658945085999e-21  -1.1949018936622216e-06  5.9385738577452667e-06  2.6951770804521102e-05  6.1111395003019624e-05  1.0769803748073218e-04  1.6595842386646145e-04  2.3512200840549943e-04  3.1439898451296895e-04  4.0298267812764797e-04  5.0005054610676889e-04  6.0476550103259643e-04  7.1627718451913031e-04  8.3372333415581454e-04  9.5623123058277150e-04  1.0829192446849252e-03  1.2128984913540920e-03  1.3452745975437656e-03  1.4791495907928395e-03  1.6136239142209843e-03  1.7477985738009343e-03  1.8807774237215840e-03  2.0116695957278479e-03  2.1395920784522018e-03  2.2636724529141094e-03  2.3830517905483782e-03  2.4968877203249986e-03  2.6043576717379785e-03  2.7046623006666886e-03  2.7970291053486585e-03  2.8807162399476535e-03  2.9550165334545193e-03  3.0192617219205876e-03  3.0728269022950359e-03  3.1151352164180933e-03  3.1456627740127584e-03  3.1639438238178176e-03  3.1695761823167167e-03  3.1622269298390683e-03  3.1416383841465010e-03  3.1076343619620491e-03  3.0601267392632889e-03  2.9991223215353404e-03  2.9247300355708947e-03  2.8371684548118056e-03  2.7367736706512382e-03  2.6240075225564372e-03  2.4994662003299710e-03  2.3638892322973251e-03  2.2181688736868290e-03  2.0633599099361645e-03  1.9006898901055393e-03  1.7315698059001607e-03  1.5576052320961386e-03  1.3806079435361974e-03  1.2026080245752977e-03  1.0258664783971854e-03  8.5288836103908578e-04  6.8643636869478522e-04  5.2954509871488867e-04  3.8553496846602437e-04  2.5802905757529800e-04  1.5095936782409365e-04  6.8609545164018671e-05  1.5509401189592757e-05  -3.1561544762749312e-06  -2.2775076337659476e-06  1.1318334100320462e-05  5.1360558076433396e-05  1.1644225413130619e-04  2.0519038412136184e-04  3.1617008526379939e-04  4.4791425566355130e-04  5.9891920105017797e-04  7.6764901493330906e-04  9.5253745045235450e-04  1.1519904508844115e-03  1.3643885933640892e-03  1.5880897108098496e-03  1.8214316639442198e-03  2.0627353009520242e-03  2.3103076174326178e-03  2.5624451318557681e-03  2.8174374887656212e-03  3.0735713015621717e-03  3.3291342462315851e-03  3.5824194173403709e-03  3.8317299576888556e-03  4.0753839732207637e-03  4.3117197450589090e-03  4.5391012508637293e-03  4.7559240080762549e-03  4.9606212520012759e-03  5.1516704621058056e-03  5.3276002503476645e-03  5.4869976258080776e-03  5.6285156503793916e-03  5.7508815007536913e-03  5.8529049524702727e-03  5.9334873023100376e-03  5.9916307458727329e-03  6.0264482277404274e-03  6.0371737822160036e-03  6.0231733832328532e-03  5.9839563226584177e-03  5.9191871368633759e-03  5.8286981020994558e-03  5.7125023199217848e-03  5.5708074146077063e-03  5.4040298652606204e-03  5.2128099960428807e-03  4.9980276487507393e-03  4.7608185627174057e-03  4.5025914877917109e-03  4.2250460568612229e-03  3.9301914450161068e-03  3.6203658429246528e-03  3.2982567720684884e-03  2.9669222692788903e-03  2.6298129656876354e-03  2.2907950850915939e-03  1.9541743680516542e-03  1.6247209597968389e-03  1.3076951084485639e-03  1.0088740952274224e-03  7.3457840278722182e-04  4.9170362004569525e-04  2.8773187132301011e-04  1.3081674905054844e-04  2.9584350650704551e-05  -6.0216320447399289e-06  -3.2506395786019783e-06  1.6153721232739526e-05  7.3295975543625301e-05  1.6615978271297856e-04  2.9278353123726313e-04  4.5111901677049226e-04  6.3907338582379109e-04  8.5450192160913549e-04  1.0952140618030416e-03  1.3589759225282750e-03  1.6435138737956965e-03  1.9465180177271307e-03  2.2656459363355973e-03  2.5985266569211627e-03  2.9427648856231851e-03  3.2959455255793463e-03  3.6556385010492682e-03  4.0194039049773131e-03  4.3847974870482795e-03  4.7493764986676450e-03  5.1107059112097276e-03  5.4663650239657139e-03  5.8139544784803982e-03  6.1511036963299388e-03  6.4754787578342049e-03  6.7847907396982061e-03  7.0768045301237512e-03  7.3493481405163107e-03  7.6003225335289984e-03  7.8277119878311738e-03  8.0295950206612544e-03  8.2041558899222829e-03  8.3496966983020084e-03  8.4646501226480139e-03  8.5475927926031807e-03  8.5972593433058016e-03  8.6125571677853757e-03  8.5925818955373684e-03  8.5366336246387800e-03  8.4442339356733623e-03  8.3151437166657897e-03  8.1493818291817968e-03  7.9472446467294209e-03  7.7093264975919189e-03  7.4365410452286824e-03  7.1301436403807443e-03  6.7917546799940399e-03  6.4233840089895156e-03  6.0274564017142309e-03  5.6068381605026635e-03  5.1648648690598205e-03  4.7053703379733866e-03  4.2327167787257021e-03  3.7518262384902802e-03  3.2682133271524378e-03  2.7880192408968455e-03  2.3180471340250824e-03  1.8657986211544336e-03  1.4395120409530691e-03  1.0481996874990242e-03  7.0169360460696582e-04  4.1066280219884897e-04  1.8673893528650822e-04  4.2239132603977203e-05  -8.5981443138279603e-06  -4.1174234032653941e-06  2.0460613842983307e-05  9.2833237866481175e-05  2.1043963677039272e-04  3.7079271076010805e-04  5.7129738941079247e-04  8.0930319773105260e-04  1.0820945499872725e-03  1.3868980486359624e-03  1.7208855085672694e-03  2.0811784030037852e-03  2.4648522338914076e-03  2.8689412673483625e-03  3.2904435558765831e-03  3.7263263048763042e-03  4.1735316011204402e-03  4.6289825287253441e-03  5.0895896940940134e-03  5.5522581811969802e-03  6.0138949579721475e-03  6.4714167546026709e-03  6.9217584345769986e-03  7.3618818797669388e-03  7.7887854112114853e-03  8.1995137678419049e-03  8.5911686660040121e-03  8.9609199633121431e-03  9.3060174510976434e-03  9.6238033004840615e-03  9.9117251879289325e-03  1.0167350126914460e-02  1.0388379033344721e-02  1.0572662053114489e-02  1.0718214681253713e-02  1.0823234703021897e-02  1.0886119988327813e-02  1.0905487171882321e-02  1.0880191252554895e-02  1.0809346146497867e-02  1.0692346229723919e-02  1.0528888906971699e-02  1.0318998244865315e-02  1.0063049708563376e-02  9.7617960422903549e-03  9.4163943353348153e-03  9.0284343162643915e-03  8.5999679192141337e-03  8.1335401671027395e-03  7.6322214174514274e-03  7.0996410169956257e-03  6.5400224113694068e-03  5.9582197553650048e-03  5.3597560679097033e-03  4.7508629708399334e-03  4.1385220503640406e-03  3.5305078483500681e-03  2.9354325572202044e-03  2.3627921652499156e-03  1.8230149104053756e-03  1.3275086245056029e-03  8.8871942514526594e-04  5.2015514056433601e-04  2.3654834637516436e-04  5.3510270701701216e-05  -1.0892903091249897e-05  -4.8813093974439057e-06  2.4256227859849427e-05  1.1005117803745795e-04  2.4946243711667753e-04  4.3953900496960835e-04  6.7720329897656586e-04  9.5931309066354855e-04  1.2826495543928006e-03  1.6439256681587426e-03  2.0397896193293332e-03  2.4668299757994090e-03  2.9215808120912892e-03  3.4005272966530805e-03  3.9001116345923027e-03  4.4167394269820949e-03  4.9467864633970680e-03  5.4866059756121296e-03  6.0325363766438930e-03  6.5809095098046293e-03  7.1280594320893851e-03  7.6703317563791926e-03  8.2040935772142963e-03  8.7257440053330835e-03  9.2317253367303186e-03  9.7185348826418286e-03  1.0182737487597892e-02  1.0620978763485072e-02  1.1029999068411525e-02  1.1406648260074799e-02  1.1747901254278851e-02  1.2050874420237178e-02  1.2312842845326520e-02  1.2531258503021831e-02  1.2703769358845561e-02  1.2828239450302134e-02  1.2902769977941873e-02  1.2925721445906624e-02  1.2895736891549891e-02  1.2811766244997665e-02  1.2673091860817944e-02  1.2479355265294744e-02  1.2230585164149691e-02  1.1927226756913205e-02  1.1570172405503986e-02  1.1160793705913930e-02  1.0700975013187198e-02  1.0193148471089807e-02  9.6403305989341288e-03  9.0461604888754966e-03  8.4149396675094901e-03  7.7516736756670993e-03  7.0621154194997551e-03  6.3528103447826560e-03  5.6311434814831571e-03  4.9053884078723428e-03  4.1847581507646189e-03  3.4794581273654311e-03  2.8007408645424024e-03  2.1609635840413913e-03  1.5736447224842230e-03  1.0535343798692175e-03  6.1664364180088820e-04  2.8044048278164346e-04  6.3441816450954415e-05  -1.2914866609254674e-05  -5.5458715898905974e-06  2.7558337272745559e-05  1.2503059569844219e-04  2.8341192459628469e-04  4.9934732860266269e-04  7.6933903294222974e-04  1.0898166708397507e-03  1.4571234094537188e-03  1.8675252934875252e-03  2.3172149630544809e-03  2.8023174284142818e-03  3.3188958311470488e-03  3.8629577554828041e-03  4.4304619603026014e-03  5.0173255947527137e-03  5.6194319121027408e-03  6.2326385108749703e-03  6.8527861290605518e-03  7.4757080184676868e-03  8.0972399262678497e-03  8.7132307112454052e-03  9.3195536227153285e-03  9.9121182706644207e-03  1.0486883316353822e-02  1.1039869913390571e-02  1.1567175930120618e-02  1.2064990985106858e-02  1.2529612328424426e-02  1.2957461602528557e-02  1.3345102517520234e-02  1.3689259476751234e-02  1.3986837189870097e-02  1.4234941311610813e-02  1.4430900145867542e-02  1.4572287455879372e-02  1.4656946422667010e-02  1.4683014795218791e-02  1.4648951277313966e-02  1.4553563197293022e-02  1.4396035508537557e-02  1.4175961169897016e-02  1.3893372956792041e-02  1.3548776755222619e-02  1.3143186392400410e-02  1.2678160059186474e-02  1.2155838380923841e-02  1.1578984194569165e-02  1.0951024091197406e-02  1.0276091783918476e-02  9.5590733618960630e-03  8.8056544914629636e-03  8.0223696249136969e-03  7.2166532772400122e-03  6.3968934274144735e-03  5.5724871067615919e-03  4.7538982057233996e-03  3.9527176412800956e-03  3.1817256230069406e-03  2.4549573159283623e-03  1.7877675206310151e-03  1.1969115120535939e-03  7.0057951423235158e-04  3.1862070461357179e-04  7.2080430132968022e-05  -1.4673555568282199e-05  -6.1147419898138426e-06  3.0384985898505175e-05  1.3785332884186792e-04  3.1247370447540077e-04  5.5054509908042848e-04  8.4820977656954700e-04  1.2015306192951403e-03  1.6064756575164666e-03  2.0589282302200121e-03  2.5546909640578354e-03  3.0894920521510522e-03  3.6589915442790831e-03  4.2587882651214685e-03  4.8844272117175005e-03  5.5314074947269368e-03  6.1951908359342139e-03  6.8712106514199353e-03  7.5548817471152822e-03  8.2416106554155100e-03  8.9268066419667773e-03  9.6058934125001303e-03  1.0274321550273731e-02  1.0927581715450092e-02  1.1561218638558343e-02  1.2170845941083658e-02  1.2752161817182694e-02  1.3300965611539733e-02  1.3813175329453017e-02  1.4284846116367064e-02  1.4712189745244766e-02  1.5091595151397373e-02  1.5419650055661739e-02  1.5693163718129333e-02  1.5909190865989027e-02  1.6065056840445662e-02  1.6158384009115071e-02  1.6187119491775051e-02  1.6149564248864743e-02  1.6044403583672422e-02  1.5870739110727353e-02  1.5628122244509709e-02  1.5316589264207018e-02  1.4936698011865529e-02  1.4489566282891841e-02  1.3976911969446013e-02  1.3401095018794938e-02  1.2765161270145405e-02  1.2072888234806808e-02  1.1328832885706373e-02  1.0538381523236372e-02  9.7078017851903002e-03  8.8442968688794490e-03  7.9560620345133001e-03  7.0523434570966938e-03  6.1434995041520675e-03  5.2410644874875375e-03  4.3578150672594611e-03  3.5078390505828578e-03  2.7066080569563330e-03  1.9710492635915036e-03  1.3196351492072893e-03  7.7242222734264475e-04  3.5129863046628166e-04  7.9473752574449918e-05  -1.6178689910890163e-05  -6.5915800880713925e-06  3.2754350632732774e-05  1.4860177749249529e-04  3.3683448567723150e-04  5.9346133390331655e-04  9.1432268692397567e-04  1.2951738149568710e-03  1.7316681311877872e-03  2.2193680560445880e-03  2.7537492190613231e-03  3.3302071556229507e-03  3.9440640326032514e-03  4.5905760665401014e-03  5.2649414709954817e-03  5.9623089996542339e-03  6.6777870958638500e-03  7.4064536781878023e-03  8.1433665891735094e-03  8.8835747371088028e-03  9.6221299613629494e-03  1.0354099652985328e-02  1.1074580163155247e-02  1.1778711033026232e-02  1.2461690079479467e-02  1.3118789372316923e-02  1.3745372139489679e-02  1.4336910638074667e-02  1.4889005029881278e-02  1.5397403301789504e-02  1.5858022272190502e-02  1.6266969726218126e-02  1.6620567723824878e-02  1.6915377126164106e-02  1.7148223387198284e-02  1.7316223658945525e-02  1.7416815260320691e-02  1.7447785561101943e-02  1.7407303334171068e-02  1.7293951630824429e-02  1.7106762235630981e-02  1.6845251759015304e-02  1.6509459427465071e-02  1.6099986632986819e-02  1.5618038305159461e-02  1.5065466170837254e-02  1.4444813968225570e-02  1.3759364683669862e-02  1.3013189881047344e-02  1.2211201195123044e-02  1.1359204061619313e-02  1.0463953758164349e-02  9.5332138315649684e-03  8.5758169893213783e-03  7.6017285334075320e-03  6.6221124281082835e-03  5.6494000661978915e-03  4.6973619423023617e-03  3.7811819759065429e-03  2.9175360904519308e-03  2.1246698955946566e-03  1.4224958362101133e-03  8.3263531957313138e-04  3.7868571838578974e-04  8.5669791494775221e-05  -1.7440058813066480e-05  -6.9800591922401174e-06  3.4684677167768855e-05  1.5735865111719265e-04  3.5668163087981640e-04  6.2842606293307646e-04  9.6818624063527647e-04  1.3714666792752513e-03  1.8336643363510189e-03  2.3500800676603865e-03  2.9159230185601447e-03  3.5263176614193513e-03  4.1763108721597124e-03  4.8608797501597687e-03  5.5749400078201235e-03  6.3133549987736039e-03  7.0709453943606764e-03  7.8424995381185993e-03  8.6227845057894013e-03  9.4065579013637452e-03  1.0188580420806065e-02  1.0963629216453809e-02  1.1726512096219914e-02  1.2472082592850108e-02  1.3195255939600636e-02  1.3891025989836938e-02  1.4554483119221841e-02  1.5180833150371061e-02  1.5765417341107844e-02  1.6303733478749683e-02  1.6791458124207296e-02  1.7224470051071684e-02  1.7598874926306338e-02  1.7911031280650185e-02  1.8157577818367836e-02  1.8335462117562523e-02  1.8441970773884007e-02  1.8474761042124192e-02  1.8431894031891400e-02  1.8311869515286613e-02  1.8113662406269510e-02  1.7836760973194640e-02  1.7481206847808663e-02  1.7047636895828659e-02  1.6537327016052494e-02  1.5952237936787534e-02  1.5295063080206818e-02  1.4569278567058240e-02  1.3779195435960175e-02  1.2930014153346592e-02  1.2027881492005890e-02  1.1079949858276721e-02  1.0094439150208299e-02  9.0807012328522427e-03  8.0492871186008397e-03  7.0120169570553849e-03  5.9820529118438737e-03  4.9739751562338378e-03  4.0038607245347635e-03  3.0893669233942882e-03  2.2498138332972296e-03  1.5062874157394021e-03  8.8168425998286486e-04  4.0099417797439640e-04  9.0716676144390264e-05  -1.8467471344605620e-05  -7.2838596038468728e-06  3.6194247096705618e-05  1.6420683106325296e-04  3.7220288966892368e-04  6.5576995085337363e-04  1.0103097850983982e-03  1.4311306974060347e-03  1.9134289774965535e-03  2.4523008342348385e-03  3.0427469430394914e-03  3.6796797518459283e-03  4.3579308304529602e-03  5.0722590010218588e-03  5.8173590691928210e-03  6.5878712274763150e-03  7.3783911401138717e-03  8.1834807394622743e-03  8.9976797616597003e-03  9.8155180526078509e-03  1.0631528676636989e-02  1.1440261861774386e-02  1.2236299816847361e-02  1.3014272456924655e-02  1.3768874074839751e-02  1.4494880997780719e-02  1.5187170269192248e-02  1.5840739397526098e-02  1.6450727214703229e-02  1.7012435888522425e-02  1.7521354134659859e-02  1.7973181675366157e-02  1.8363854993467238e-02  1.8689574431827723e-02  1.8946832690026900e-02  1.9132444771638165e-02  1.9243579437182082e-02  1.9277792219548437e-02  1.9233060060444864e-02  1.9107817628229468e-02  1.8900995379322615e-02  1.8612059427256425e-02  1.8241053285319071e-02  1.7788641550667020e-02  1.7256155599723311e-02  1.6645641366640273e-02  1.5959909278596345e-02  1.5202586423719234e-02  1.4378171029516369e-02  1.3492089331891286e-02  1.2550754917201411e-02  1.1561630622591789e-02  1.0533293082931003e-02  9.4755000176389749e-03  8.3992603535835379e-03  7.3169072985151060e-03  6.2421744517862426e-03  5.1902751994191915e-03  4.1779851207050384e-03  3.2237291776217253e-03  2.3476679577932296e-03  1.5718053740815601e-03  9.2003535248405370e-04  4.1843646931255470e-04  9.4662555384833889e-05  -1.9270737009554426e-05  -7.5066650890714840e-06  3.7301360451604654e-05  1.6922929316616849e-04  3.8358623838256141e-04  6.7582405540609876e-04  1.0412032332812278e-03  1.4748880747498785e-03  1.9719276005005604e-03  2.5272678465400691e-03  3.1357565328854848e-03  3.7921505686433717e-03  4.4911236005538676e-03  5.2272743686001691e-03  5.9951356841363729e-03  6.7891841048279139e-03  7.6038503156928526e-03  8.4335302467240282e-03  9.2725969551017435e-03  1.0115413303392398e-02  1.0956345466567933e-02  1.1789777302368796e-02  1.2610125620968984e-02  1.3411856391291652e-02  1.4189501922663649e-02  1.4937679061828687e-02  1.5651108446676176e-02  1.6324634859401214e-02  1.6953248723201215e-02  1.7532108788037341e-02  1.8056566052456351e-02  1.8522188969973246e-02  1.8924789990067265e-02  1.9260453485438693e-02  1.9525565118814290e-02  1.9716842704272375e-02  1.9831368619789107e-02  1.9866623829475464e-02  1.9820523575790512e-02  1.9691454803868212e-02  1.9478315381986813e-02  1.9180555184142318e-02  1.8798219102651201e-02  1.8331992060714813e-02  1.7783246096919322e-02  1.7154089595736804e-02  1.6447418740240891e-02  1.5666971265484230e-02  1.4817382593334679e-02  1.3904244432114365e-02  1.2934165927196926e-02  1.1914837452045624e-02  1.0855097132908628e-02  9.7650002060897523e-03  8.6558913101968202e-03  7.5404798348044349e-03  6.4329184178375928e-03  5.3488848471731068e-03  4.3056670818397147e-03  3.3222532066908288e-03  2.4194203933916867e-03  1.6198459143000900e-03  9.4815517470256384e-04  4.3122507166639583e-04  9.7555556071451442e-05  -1.9859658361235348e-05  -7.6521609742171211e-06  3.8024326082161178e-05  1.7250906312259284e-04  3.9101978264587529e-04  6.8891967213572064e-04  1.0613768574191528e-03  1.5034614934928308e-03  2.0101263282491081e-03  2.5762192468621005e-03  3.1964880250021062e-03  3.8655879653757058e-03  4.5780895751392501e-03  5.3284870657172223e-03  6.1112074887150125e-03  6.9206205845401348e-03  7.7510493534556019e-03  8.5967813800231548e-03  9.4520809391855313e-03  1.0311201915615539e-02  1.1168401569424643e-02  1.2017955183076552e-02  1.2854171625864866e-02  1.3671409873781057e-02  1.4464096524013639e-02  1.5226744344716270e-02  1.5953971902080120e-02  1.6640524308156789e-02  1.7281295134312528e-02  1.7871349536662671e-02  1.8405948641335917e-02  1.8880575238961878e-02  1.9290960839358287e-02  1.9633114139021687e-02  1.9903350955696762e-02  2.0098325686014763e-02  2.0215064343950897e-02  2.0250999239656661e-02  2.0204005360068788e-02  2.0072438514590445e-02  1.9855175311076584e-02  1.9551655029333936e-02  1.9161923461376695e-02  1.8686678789753067e-02  1.8127319577396873e-02  1.7485994944660750e-02  1.6765657011485163e-02  1.5970115685071895e-02  1.510409