<?xml version="1.0"?>
<VTKFile type="UnstructuredGrid"  version="0.1"  >
<UnstructuredGrid>
<Piece  NumberOfPoints="4225" NumberOfCells="4096">
<Points>
<DataArray  type="Float64"  NumberOfComponents="3"  format="ascii">0 0 0  0.015625 0 0  0.03125 0 0  0.046875 0 0  0.0625 0 0  0.078125 0 0  0.09375 0 0  0.109375 0 0  0.125 0 0  0.140625 0 0  0.15625 0 0  0.171875 0 0  0.1875 0 0  0.203125 0 0  0.21875 0 0  0.234375 0 0  0.25 0 0  0.265625 0 0  0.28125 0 0  0.296875 0 0  0.3125 0 0  0.328125 0 0  0.34375 0 0  0.359375 0 0  0.375 0 0  0.390625 0 0  0.40625 0 0  0.421875 0 0  0.4375 0 0  0.453125 0 0  0.46875 0 0  0.484375 0 0  0.5 0 0  0.515625 0 0  0.53125 0 0  0.546875 0 0  0.5625 0 0  0.578125 0 0  0.59375 0 0  0.609375 0 0  0.625 0 0  0.640625 0 0  0.65625 0 0  0.671875 0 0  0.6875 0 0  0.703125 0 0  0.71875 0 0  0.734375 0 0  0.75 0 0  0.765625 0 0  0.78125 0 0  0.796875 0 0  0.8125 0 0  0.828125 0 0  0.84375 0 0  0.859375 0 0  0.875 0 0  0.890625 0 0  0.90625 0 0  0.921875 0 0  0.9375 0 0  0.953125 0 0  0.96875 0 0  0.984375 0 0  1 0 0  0 0.015625 0  0.015625 0.015625 0  0.03125 0.015625 0  0.046875 0.015625 0  0.0625 0.015625 0  0.078125 0.015625 0  0.09375 0.015625 0  0.109375 0.015625 0  0.125 0.015625 0  0.140625 0.015625 0  0.15625 0.015625 0  0.171875 0.015625 0  0.1875 0.015625 0  0.203125 0.015625 0  0.21875 0.015625 0  0.234375 0.015625 0  0.25 0.015625 0  0.265625 0.015625 0  0.28125 0.015625 0  0.296875 0.015625 0  0.3125 0.015625 0  0.328125 0.015625 0  0.34375 0.015625 0  0.359375 0.015625 0  0.375 0.015625 0  0.390625 0.015625 0  0.40625 0.015625 0  0.421875 0.015625 0  0.4375 0.015625 0  0.453125 0.015625 0  0.46875 0.015625 0  0.484375 0.015625 0  0.5 0.015625 0  0.515625 0.015625 0  0.53125 0.015625 0  0.546875 0.015625 0  0.5625 0.015625 0  0.578125 0.015625 0  0.59375 0.015625 0  0.609375 0.015625 0  0.625 0.015625 0  0.640625 0.015625 0  0.65625 0.015625 0  0.671875 0.015625 0  0.6875 0.015625 0  0.703125 0.015625 0  0.71875 0.015625 0  0.734375 0.015625 0  0.75 0.015625 0  0.765625 0.015625 0  0.78125 0.015625 0  0.796875 0.015625 0  0.8125 0.015625 0  0.828125 0.015625 0  0.84375 0.015625 0  0.859375 0.015625 0  0.875 0.015625 0  0.890625 0.015625 0  0.90625 0.015625 0  0.921875 0.015625 0  0.9375 0.015625 0  0.953125 0.015625 0  0.96875 0.015625 0  0.984375 0.015625 0  1 0.015625 0  0 0.03125 0  0.015625 0.03125 0  0.03125 0.03125 0  0.046875 0.03125 0  0.0625 0.03125 0  0.078125 0.03125 0  0.09375 0.03125 0  0.109375 0.03125 0  0.125 0.03125 0  0.140625 0.03125 0  0.15625 0.03125 0  0.171875 0.03125 0  0.1875 0.03125 0  0.203125 0.03125 0  0.21875 0.03125 0  0.234375 0.03125 0  0.25 0.03125 0  0.265625 0.03125 0  0.28125 0.03125 0  0.296875 0.03125 0  0.3125 0.03125 0  0.328125 0.03125 0  0.34375 0.03125 0  0.359375 0.03125 0  0.375 0.03125 0  0.390625 0.03125 0  0.40625 0.03125 0  0.421875 0.03125 0  0.4375 0.03125 0  0.453125 0.03125 0  0.46875 0.03125 0  0.484375 0.03125 0  0.5 0.03125 0  0.515625 0.03125 0  0.53125 0.03125 0  0.546875 0.03125 0  0.5625 0.03125 0  0.578125 0.03125 0  0.59375 0.03125 0  0.609375 0.03125 0  0.625 0.03125 0  0.640625 0.03125 0  0.65625 0.03125 0  0.671875 0.03125 0  0.6875 0.03125 0  0.703125 0.03125 0  0.71875 0.03125 0  0.734375 0.03125 0  0.75 0.03125 0  0.765625 0.03125 0  0.78125 0.03125 0  0.796875 0.03125 0  0.8125 0.03125 0  0.828125 0.03125 0  0.84375 0.03125 0  0.859375 0.03125 0  0.875 0.03125 0  0.890625 0.03125 0  0.90625 0.03125 0  0.921875 0.03125 0  0.9375 0.03125 0  0.953125 0.03125 0  0.96875 0.03125 0  0.984375 0.03125 0  1 0.03125 0  0 0.046875 0  0.015625 0.046875 0  0.03125 0.046875 0  0.046875 0.046875 0  0.0625 0.046875 0  0.078125 0.046875 0  0.09375 0.046875 0  0.109375 0.046875 0  0.125 0.046875 0  0.140625 0.046875 0  0.15625 0.046875 0  0.171875 0.046875 0  0.1875 0.046875 0  0.203125 0.046875 0  0.21875 0.046875 0  0.234375 0.046875 0  0.25 0.046875 0  0.265625 0.046875 0  0.28125 0.046875 0  0.296875 0.046875 0  0.3125 0.046875 0  0.328125 0.046875 0  0.34375 0.046875 0  0.359375 0.046875 0  0.375 0.046875 0  0.390625 0.046875 0  0.40625 0.046875 0  0.421875 0.046875 0  0.4375 0.046875 0  0.453125 0.046875 0  0.46875 0.046875 0  0.484375 0.046875 0  0.5 0.046875 0  0.515625 0.046875 0  0.53125 0.046875 0  0.546875 0.046875 0  0.5625 0.046875 0  0.578125 0.046875 0  0.59375 0.046875 0  0.609375 0.046875 0  0.625 0.046875 0  0.640625 0.046875 0  0.65625 0.046875 0  0.671875 0.046875 0  0.6875 0.046875 0  0.703125 0.046875 0  0.71875 0.046875 0  0.734375 0.046875 0  0.75 0.046875 0  0.765625 0.046875 0  0.78125 0.046875 0  0.796875 0.046875 0  0.8125 0.046875 0  0.828125 0.046875 0  0.84375 0.046875 0  0.859375 0.046875 0  0.875 0.046875 0  0.890625 0.046875 0  0.90625 0.046875 0  0.921875 0.046875 0  0.9375 0.046875 0  0.953125 0.046875 0  0.96875 0.046875 0  0.984375 0.046875 0  1 0.046875 0  0 0.0625 0  0.015625 0.0625 0  0.03125 0.0625 0  0.046875 0.0625 0  0.0625 0.0625 0  0.078125 0.0625 0  0.09375 0.0625 0  0.109375 0.0625 0  0.125 0.0625 0  0.140625 0.0625 0  0.15625 0.0625 0  0.171875 0.0625 0  0.1875 0.0625 0  0.203125 0.0625 0  0.21875 0.0625 0  0.234375 0.0625 0  0.25 0.0625 0  0.265625 0.0625 0  0.28125 0.0625 0  0.296875 0.0625 0  0.3125 0.0625 0  0.328125 0.0625 0  0.34375 0.0625 0  0.359375 0.0625 0  0.375 0.0625 0  0.390625 0.0625 0  0.40625 0.0625 0  0.421875 0.0625 0  0.4375 0.0625 0  0.453125 0.0625 0  0.46875 0.0625 0  0.484375 0.0625 0  0.5 0.0625 0  0.515625 0.0625 0  0.53125 0.0625 0  0.546875 0.0625 0  0.5625 0.0625 0  0.578125 0.0625 0  0.59375 0.0625 0  0.609375 0.0625 0  0.625 0.0625 0  0.640625 0.0625 0  0.65625 0.0625 0  0.671875 0.0625 0  0.6875 0.0625 0  0.703125 0.0625 0  0.71875 0.0625 0  0.734375 0.0625 0  0.75 0.0625 0  0.765625 0.0625 0  0.78125 0.0625 0  0.796875 0.0625 0  0.8125 0.0625 0  0.828125 0.0625 0  0.84375 0.0625 0  0.859375 0.0625 0  0.875 0.0625 0  0.890625 0.0625 0  0.90625 0.0625 0  0.921875 0.0625 0  0.9375 0.0625 0  0.953125 0.0625 0  0.96875 0.0625 0  0.984375 0.0625 0  1 0.0625 0  0 0.078125 0  0.015625 0.078125 0  0.03125 0.078125 0  0.046875 0.078125 0  0.0625 0.078125 0  0.078125 0.078125 0  0.09375 0.078125 0  0.109375 0.078125 0  0.125 0.078125 0  0.140625 0.078125 0  0.15625 0.078125 0  0.171875 0.078125 0  0.1875 0.078125 0  0.203125 0.078125 0  0.21875 0.078125 0  0.234375 0.078125 0  0.25 0.078125 0  0.265625 0.078125 0  0.28125 0.078125 0  0.296875 0.078125 0  0.3125 0.078125 0  0.328125 0.078125 0  0.34375 0.078125 0  0.359375 0.078125 0  0.375 0.078125 0  0.390625 0.078125 0  0.40625 0.078125 0  0.421875 0.078125 0  0.4375 0.078125 0  0.453125 0.078125 0  0.46875 0.078125 0  0.484375 0.078125 0  0.5 0.078125 0  0.515625 0.078125 0  0.53125 0.078125 0  0.546875 0.078125 0  0.5625 0.078125 0  0.578125 0.078125 0  0.59375 0.078125 0  0.609375 0.078125 0  0.625 0.078125 0  0.640625 0.078125 0  0.65625 0.078125 0  0.671875 0.078125 0  0.6875 0.078125 0  0.703125 0.078125 0  0.71875 0.078125 0  0.734375 0.078125 0  0.75 0.078125 0  0.765625 0.078125 0  0.78125 0.078125 0  0.796875 0.078125 0  0.8125 0.078125 0  0.828125 0.078125 0  0.84375 0.078125 0  0.859375 0.078125 0  0.875 0.078125 0  0.890625 0.078125 0  0.90625 0.078125 0  0.921875 0.078125 0  0.9375 0.078125 0  0.953125 0.078125 0  0.96875 0.078125 0  0.984375 0.078125 0  1 0.078125 0  0 0.09375 0  0.015625 0.09375 0  0.03125 0.09375 0  0.046875 0.09375 0  0.0625 0.09375 0  0.078125 0.09375 0  0.09375 0.09375 0  0.109375 0.09375 0  0.125 0.09375 0  0.140625 0.09375 0  0.15625 0.09375 0  0.171875 0.09375 0  0.1875 0.09375 0  0.203125 0.09375 0  0.21875 0.09375 0  0.234375 0.09375 0  0.25 0.09375 0  0.265625 0.09375 0  0.28125 0.09375 0  0.296875 0.09375 0  0.3125 0.09375 0  0.328125 0.09375 0  0.34375 0.09375 0  0.359375 0.09375 0  0.375 0.09375 0  0.390625 0.09375 0  0.40625 0.09375 0  0.421875 0.09375 0  0.4375 0.09375 0  0.453125 0.09375 0  0.46875 0.09375 0  0.484375 0.09375 0  0.5 0.09375 0  0.515625 0.09375 0  0.53125 0.09375 0  0.546875 0.09375 0  0.5625 0.09375 0  0.578125 0.09375 0  0.59375 0.09375 0  0.609375 0.09375 0  0.625 0.09375 0  0.640625 0.09375 0  0.65625 0.09375 0  0.671875 0.09375 0  0.6875 0.09375 0  0.703125 0.09375 0  0.71875 0.09375 0  0.734375 0.09375 0  0.75 0.09375 0  0.765625 0.09375 0  0.78125 0.09375 0  0.796875 0.09375 0  0.8125 0.09375 0  0.828125 0.09375 0  0.84375 0.09375 0  0.859375 0.09375 0  0.875 0.09375 0  0.890625 0.09375 0  0.90625 0.09375 0  0.921875 0.09375 0  0.9375 0.09375 0  0.953125 0.09375 0  0.96875 0.09375 0  0.984375 0.09375 0  1 0.09375 0  0 0.109375 0  0.015625 0.109375 0  0.03125 0.109375 0  0.046875 0.109375 0  0.0625 0.109375 0  0.078125 0.109375 0  0.09375 0.109375 0  0.109375 0.109375 0  0.125 0.109375 0  0.140625 0.109375 0  0.15625 0.109375 0  0.171875 0.109375 0  0.1875 0.109375 0  0.203125 0.109375 0  0.21875 0.109375 0  0.234375 0.109375 0  0.25 0.109375 0  0.265625 0.109375 0  0.28125 0.109375 0  0.296875 0.109375 0  0.3125 0.109375 0  0.328125 0.109375 0  0.34375 0.109375 0  0.359375 0.109375 0  0.375 0.109375 0  0.390625 0.109375 0  0.40625 0.109375 0  0.421875 0.109375 0  0.4375 0.109375 0  0.453125 0.109375 0  0.46875 0.109375 0  0.484375 0.109375 0  0.5 0.109375 0  0.515625 0.109375 0  0.53125 0.109375 0  0.546875 0.109375 0  0.5625 0.109375 0  0.578125 0.109375 0  0.59375 0.109375 0  0.609375 0.109375 0  0.625 0.109375 0  0.640625 0.109375 0  0.65625 0.109375 0  0.671875 0.109375 0  0.6875 0.109375 0  0.703125 0.109375 0  0.71875 0.109375 0  0.734375 0.109375 0  0.75 0.109375 0  0.765625 0.109375 0  0.78125 0.109375 0  0.796875 0.109375 0  0.8125 0.109375 0  0.828125 0.109375 0  0.84375 0.109375 0  0.859375 0.109375 0  0.875 0.109375 0  0.890625 0.109375 0  0.90625 0.109375 0  0.921875 0.109375 0  0.9375 0.109375 0  0.953125 0.109375 0  0.96875 0.109375 0  0.984375 0.109375 0  1 0.109375 0  0 0.125 0  0.015625 0.125 0  0.03125 0.125 0  0.046875 0.125 0  0.0625 0.125 0  0.078125 0.125 0  0.09375 0.125 0  0.109375 0.125 0  0.125 0.12
[...]
<PointData  Scalars="v_sol"> 
<DataArray  type="Float64"  Name="v_sol"  format="ascii">1.4823076576950260e-21  1.2065947191383271e-06  2.3550795590749939e-06  3.4428719645920608e-06  4.4677509654579676e-06  5.4278826287275177e-06  6.3216259334226920e-06  7.1474743776238604e-06  7.9040331312095281e-06  8.5900132552871055e-06  9.2042330132899666e-06  9.7456227535936077e-06  1.0213231724002085e-05  1.0606236075844413e-05  1.0923947692637341e-05  1.1165823661817876e-05  1.1331476298482897e-05  1.1420683677595027e-05  1.1433400656775120e-05  1.1369770386241607e-05  1.1230136310903090e-05  1.1015054674648925e-05  1.0725307540160459e-05  1.0361916339651334e-05  9.9261559734664638e-06  9.4195694746098557e-06  8.8439832582186298e-06  8.2015229758069083e-06  7.4946299948268155e-06  6.7260785249020413e-06  5.8989934127235550e-06  5.0168686284144341e-06  4.0835864669254546e-06  3.1034374887655914e-06  2.0811412253700765e-06  1.0218676751132160e-06  -6.8740382890523194e-08  -1.1845442291474325e-06  -2.3188851690836155e-06  -3.4645595929424739e-06  -4.6137930985851379e-06  -5.7582136441749201e-06  -6.8888236961818262e-06  -7.9959713365603017e-06  -9.0693202911443206e-06  -1.0097818839535270e-05  -1.1069667564781120e-05  -1.1972285899562242e-05  -1.2792277423966456e-05  -1.3515393869848071e-05  -1.4126497788335701e-05  -1.4609523843496536e-05  -1.4947438710396042e-05  -1.5122199589620674e-05  -1.5114711422223089e-05  -1.4904783040767313e-05  -1.4471082818453407e-05  -1.3791095102397983e-05  -1.2841080389332880e-05  -1.1596046359474563e-05  -1.0029747745309950e-05  -8.1147661294449041e-06  -5.8228226728728078e-06  -3.1259117892243103e-06  -3.3881317890171999e-21  -1.6940658945086011e-21  -5.9619594868510314e-06  -1.1636082671942905e-05  -1.7010001672099506e-05  -2.2073073338032448e-05  -2.6816300933384313e-05  -3.1231588065454052e-05  -3.5311486623675208e-05  -3.9049097675963819e-05  -4.2438046047250332e-05  -4.5472487556075673e-05  -4.8147133083423389e-05  -5.0457282013212372e-05  -5.2398861539593121e-05  -5.3968470085910894e-05  -5.5163423943677052e-05  -5.5981806675977100e-05  -5.6422521062288060e-05  -5.6485343489317093e-05  -5.6170980765271161e-05  -5.5481129378009485e-05  -5.4418537243541537e-05  -5.2987068008334735e-05  -5.1191767979806679e-05  -4.9038935767384621e-05  -4.6536194722432328e-05  -4.3692568270262309e-05  -4.0518558231624921e-05  -3.7026226234778538e-05  -3.3229278323230677e-05  -2.9143152867567599e-05  -2.4785111893747425e-05  -2.0174335944000056e-05  -1.5332022590223737e-05  -1.0281488724513636e-05  -5.0482767550815685e-06  3.3973515875229026e-07  5.8522186943771972e-06  1.1456276632764117e-05  1.7116319655226994e-05  2.2793938514531268e-05  2.8447771418573385e-05  3.4033366457641580e-05  3.9503038899088931e-05  4.4805723165210232e-05  4.9886819302566915e-05  5.4688033743028840e-05  5.9147214151327972e-05  6.3198178149805455e-05  6.6770535715556903e-05  6.9789505061269627e-05  7.2175721854412351e-05  7.3845041722927287e-05  7.4708336189621718e-05  7.4671282572962293e-05  7.3634149199568546e-05  7.1491578959980622e-05  6.8132377873849213e-05  6.3439323492886396e-05  5.7289027531367566e-05  4.9551936626766353e-05  4.0092697389658095e-05  2.8771533932900571e-05  1.5448915818304637e-05  0.0000000000000000e+00  -6.7762635780344027e-21  -2.6707316257508700e-05  -5.2118392545426955e-05  -7.6181714881209345e-05  -9.8852641986614350e-05  -1.2009154105291167e-04  -1.3986228391942390e-04  -1.5813147873784523e-04  -1.7486816075784915e-04  -1.9004371285779380e-04  -2.0363190718284489e-04  -2.1560901344843070e-04  -2.2595394700638649e-04  -2.3464844282718742e-04  -2.4167724813100810e-04  -2.4702832979000883e-04  -2.5069309443953922e-04  -2.5266662023957403e-04  -2.5294789979941060e-04  -2.5154009411445025e-04  -2.4845079756707195e-04  -2.4369231417030416e-04  -2.3728194531559275e-04  -2.2924228934135545e-04  -2.1960155327862608e-04  -2.0839387715987405e-04  -1.9565967130119943e-04  -1.8144596698853460e-04  -1.6580678101650497e-04  -1.4880349454661677e-04  -1.3050524676781945e-04  -1.1098934385965123e-04  -9.0341683775640853e-05  -6.8657197381673577e-05  -4.6040306503839636e-05  -2.2605399457877147e-05  1.5226753457036920e-06  2.6208097106795350e-05  5.1303541013760416e-05  7.6649626633892878e-05  1.0207434563057504e-04  1.2739246809590019e-04  1.5240492676053721e-04  1.7689817831582628e-04  2.0064354105702061e-04  2.2339650803356753e-04  2.4489603487545445e-04  2.6486380146246129e-04  2.8300344662344920e-04  2.9899977512166861e-04  3.1251793633292309e-04  3.2320257432833286e-04  3.3067694966065590e-04  3.3454203426818059e-04  3.3437558303588073e-04  3.2973118965225721e-04  3.2013734248887625e-04  3.0509651265497439e-04  2.8408434101102160e-04  2.5654906707733193e-04  2.2191151944729091e-04  1.7956641609153415e-04  1.2888683075519661e-04  6.9236441974577555e-05  2.7105054312137605e-20  8.3201765250538613e-21  -5.9642754714953275e-05  -1.1637623612281855e-04  -1.7009439177276075e-04  -2.2070243537938608e-04  -2.6811365742347373e-04  -3.1224791245323773e-04  -3.5303071758663822e-04  -3.9039286190064676e-04  -4.2427034097056366e-04  -4.5460448877744517e-04  -4.8134223132946822e-04  -5.0443641893593350e-04  -5.2384621290260355e-04  -5.3953751297141793e-04  -5.5148341778991472e-04  -5.5966471410714286e-04  -5.6407039238539171e-04  -5.6469818770475352e-04  -5.6155514556246555e-04  -5.5465821262201535e-04  -5.4403485275835307e-04  -5.2972368893893537e-04  -5.1177517161311306e-04  -4.9025227437855790e-04  -4.6523121776539868e-04  -4.3680222203728848e-04  -4.0507028995751936e-04  -3.7015602051152858e-04  -3.3219645461835424e-04  -2.9134595390212822e-04  -2.4777711363324921e-04  -2.0168171098788139e-04  -1.5327168981331074e-04  -1.0278018312817449e-04  -5.0462574627392766e-05  3.4023994939330966e-06  5.8511507038902451e-05  1.1453583322396635e-04  1.7111954955688043e-04  2.2787863667478097e-04  2.8439955959017841e-04  3.4023789374447276e-04  3.9491690022406970e-04  4.4792604845725358e-04  4.9871948468762283e-04  5.4671444452331248e-04  5.9128960791057978e-04  6.3178339500653347e-04  6.6749220168669078e-04  6.9766857391326189e-04  7.2151932108027272e-04  7.3820357004289266e-04  7.4683076437916530e-04  7.4645861854436436e-04  7.3609104589386035e-04  7.1467609683935449e-04  6.8110397617494184e-04  6.3420527215633424e-04  5.7274965589972201e-04  4.9544556285376312e-04  4.0094187319742705e-04  2.8783354321120820e-04  1.5467432074392444e-04  -9.3889179339942335e-20  -3.9502228324736566e-20  -1.0350355098677141e-04  -2.0193978729707033e-04  -2.9513603266426700e-04  -3.8293321323013045e-04  -4.6518351220039243e-04  -5.4174893376942430e-04  -6.1250058559258558e-04  -6.7731841499643619e-04  -7.3609128538056371e-04  -7.8871728843548034e-04  -8.3510421888970056e-04  -8.7517016396866112e-04  -9.0884417776579103e-04  -9.3606702235922890e-04  -9.5679196479098584e-04  -9.7098562354252247e-04  -9.7862886095376298e-04  -9.7971771980025994e-04  -9.7426440337122300e-04  -9.6229829912378205e-04  -9.4386704647544809e-04  -9.1903764962898455e-04  -8.8789763655752404e-04  -8.5055626544953955e-04  -8.0714578004406818e-04  -7.5782271539240667e-04  -7.0276925567149386e-04  -6.4219464575260852e-04  -5.7633665830222761e-04  -5.0546311826051580e-04  -4.2987348661063714e-04  -3.4990050541944262e-04  -2.6591190619762938e-04  -1.7831218369704813e-04  -8.7544437332680812e-05  5.9077175104994779e-06  1.0151816595194774e-04  1.9871623546239249e-04  2.9688456059861237e-04  3.9535686806691514e-04  4.9341567948458381e-04  5.9028992914291097e-04  6.8515249402327310e-04  7.7711763328511328e-04  8.6523833445012401e-04  9.4850356356949073e-04  1.0258354168227977e-03  1.0960861713156203e-03  1.1580352334227106e-03  1.2103859840304483e-03  1.2517625217524759e-03  1.2807063081060215e-03  1.2956727235814665e-03  1.2950275519759658e-03  1.2770434248821384e-03  1.2398962834531209e-03  1.1816619587678551e-03  1.1003130498234075e-03  9.9371641362164687e-04  8.5963180930259599e-04  6.9571258395359590e-04  4.9950965370140592e-04  2.6848007268616940e-04  1.3552527156068799e-20  1.4163465213204381e-20  -1.5704215540443948e-04  -3.0637556724512122e-04  -4.4774949538319974e-04  -5.8092870204218543e-04  -7.0569208650897376e-04  -8.2183184018767787e-04  -9.2915307995111414e-04  -1.0274738877204910e-03  -1.1166256622687166e-03  -1.1964537140559152e-03  -1.2668180450041424e-03  -1.3275942705666464e-03  -1.3786746546357209e-03  -1.4199692378669844e-03  -1.4514070470549401e-03  -1.4729373779896883e-03  -1.4845311474359563e-03  -1.4861823120176545e-03  -1.4779093532289610e-03  -1.4597568287674780e-03  -1.4317969910570909e-03  -1.3941314743020376e-03  -1.3468930517559527e-03  -1.2902474651473970e-03  -1.2243953284024759e-03  -1.1495741079683146e-03  -1.0660601821787850e-03  -9.7417098222574139e-04  -8.7426721741151248e-04  -7.6675518746416337e-04  -6.5208918480011337e-04  -5.3077398972037814e-04  -4.0336746162829832e-04  -2.7048322945932954e-04  -1.3279348461655449e-04  8.9681201889984593e-06  1.5400346268950793e-04  3.0144682979295031e-04  4.5036167958448654e-04  5.9973728278449865e-04  7.4848523976148401e-04  8.9543586912283737e-04  1.0393344638577654e-03  1.1788374109976906e-03  1.3125081708169248e-03  1.4388131117549674e-03  1.5561171975623485e-03  1.6626795237434033e-03  1.7566487013398681e-03  1.8360580876982627e-03  1.8988208664675575e-03  1.9427249832842659e-03  1.9654279504063336e-03  1.9644515445600631e-03  1.9371764400651882e-03  1.8808368480415338e-03  1.7925152784747129e-03  1.6691376137891014e-03  1.5074687891051979e-03  1.3041095145791648e-03  1.0554946042915919e-03  7.5789345950157475e-04  4.0741275010464036e-04  -2.9469757201931512e-19  -3.0676915124346946e-20  -2.1905911461983353e-04  -4.2734466054994864e-04  -6.2451726922227143e-04  -8.1025500235953364e-04  -9.8425299278730822e-04  -1.1462232925448246e-03  -1.2958950320538125e-03  -1.4330148861555320e-03  -1.5573478152738735e-03  -1.6686780389287893e-03  -1.7668102029921840e-03  -1.8515707081664626e-03  -1.9228091749498133e-03  -1.9804000274392538e-03  -2.0242441840566390e-03  -2.0542708476013550e-03  -2.0704393901724138e-03  -2.0727413307422486e-03  -2.0612024047535317e-03  -2.0358847262412190e-03  -1.9968890437944155e-03  -1.9443570922668680e-03  -1.8784740425882107e-03  -1.7994710523696411e-03  -1.7076279202689411e-03  -1.6032758473035684e-03  -1.4868003084930292e-03  -1.3586440383817279e-03  -1.2193101341513098e-03  -1.0693652801791332e-03  -9.0944309804330548e-04  -7.4024762611497256e-04  -5.6255693301853502e-04  -3.7722686938002092e-04  -1.8519496242346402e-04  1.2515541884784277e-05  2.1479148430537441e-04  4.2042544043391226e-04  6.2811120634210323e-04  8.3643911652598213e-04  1.0438911888309796e-03  1.2488360909463214e-03  1.4495239230254405e-03  1.6440808110172727e-03  1.8305033054185082e-03  2.0066525804308061e-03  2.1702484290030033e-03  2.3188630500745747e-03  2.4499146256865877e-03  2.5606606877583739e-03  2.6481912776530970e-03  2.7094219067945778e-03  2.7410863344963943e-03  2.7397291912218038e-03  2.7016984937087078e-03  2.6231381254235302e-03  2.4999803946014524e-03  2.3279388343464755e-03  2.1025014707511231e-03  1.8189248345737152e-03  1.4722289753430723e-03  1.0571935409693265e-03  5.6835447757865314e-04  2.7105054312137599e-20  -8.1191184900779889e-20  -2.8839617691739703e-04  -5.6258864985501381e-04  -8.2213986416842058e-04  -1.0666319459527768e-03  -1.2956672112148352e-03  -1.5088687416370103e-03  -1.7058811424783549e-03  -1.8863715286987911e-03  -2.0500307420906775e-03  -2.1965747847284816e-03  -2.3257464474497782e-03  -2.4373171124808563e-03  -2.5310887123264933e-03  -2.6068958311032818e-03  -2.6646079384456153e-03  -2.7041317494967145e-03  -2.7254137072023252e-03  -2.7284425852074352e-03  -2.7132522112305940e-03  -2.6799243119713010e-03  -2.6285914814956090e-03  -2.5594402757213868e-03  -2.4727144361482755e-03  -2.3687182463926482e-03  -2.2478200254258543e-03  -2.1104557616987833e-03  -1.9571328925835638e-03  -1.7884342337846706e-03  -1.6050220635774627e-03  -1.4076423669254323e-03  -1.1971292447150942e-03  -9.7440949352992740e-04  -7.4050736156560000e-04  -4.9654948646857115e-04  -2.4377002105749779e-04  1.6484046935645251e-05  2.8274737479557101e-04  5.5343053794771517e-04  8.2681408964254712e-04  1.1010424004256746e-03  1.3741172705040343e-03  1.6438913080423553e-03  1.9080610664062741e-03  2.1641599334365547e-03  2.4095507660347234e-03  2.6414182637229380e-03  2.8567610754965870e-03  3.0523836353435006e-03  3.2248877234433335e-03  3.3706637525495590e-03  3.4858817827785973e-03  3.5664822735229666e-03  3.6081665892044334e-03  3.6063872870380665e-03  3.5563382309722427e-03  3.4529445974030635e-03  3.2908528649595852e-03  3.0644209093347989e-03  2.7677083443342900e-03  2.3944672385695447e-03  1.9381332503701054e-03  1.3918170059247115e-03  7.4829515293573174e-04  -2.6975428197213203e-19  1.3281221217544106e-19  -3.6393882401924445e-04  -7.0993435221814263e-04  -1.0374424741306321e-03  -1.3459413935453979e-03  -1.6349328985741838e-03  -1.9039436365066963e-03  -2.1525265018173100e-03  -2.3802621960181264e-03  -2.5867609841367396e-03  -2.7716646517380863e-03  -2.9346486562670322e-03  -3.0754244624812150e-03  -3.1937420514572715e-03  -3.2893925941466133e-03  -3.3622112826740113e-03  -3.4120803148681117e-03  -3.4389320295919656e-03  -3.4427521921938002e-03  -3.4235834308226892e-03  -3.3815288254887260e-03  -3.3167556526467450e-03  -3.2294992887986701e-03  -3.1200672771850039e-03  -2.9888435621079840e-03  -2.8362928958244687e-03  -2.6629654232866646e-03  -2.4695014503102177e-03  -2.2566364010218336e-03  -2.0252059706931283e-03  -1.7761514803083132e-03  -1.5105254394462727e-03  -1.2294973242847110e-03  -9.3435957775777137e-04  -6.2653383911974415e-04  -3.0757741038547258e-04  2.0810032667591565e-05  3.5677947704237879e-04  6.9832534851823464e-04  1.0432780188244901e-03  1.3892960355555842e-03  1.7338580662651583e-03  2.0742545481008384e-03  2.4075790343381417e-03  2.7307192292733702e-03  3.0403477031866132e-03  3.3329122795499109e-03  3.6046260874200353e-03  3.8514572731437029e-03  4.0691183672845110e-03  4.2530553052845142e-03  4.3984361041031856e-03  4.5001392023120857e-03  4.5527414783065115e-03  4.5505059708442711e-03  4.4873693382208070e-03  4.3569291065179792e-03  4.1524307713667139e-03  3.8667548261348984e-03  3.4924037815429114e-03  3.0214891990009872e-03  2.4457186580738653e-03  1.7563823953099099e-03  9.4433909117563962e-04  1.6263032587282559e-19  -2.6032228361602124e-19  -4.4461594210714516e-04  -8.6729313438814969e-04  -1.2673738116343531e-03  -1.6442255326293768e-03  -1.9972431250226343e-03  -2.3258506241287881e-03  -2.6295032940869588e-03  -2.9076897903410302e-03  -3.1599344969261401e-03  -3.3858000542111733e-03  -3.5848900816357276e-03  -3.7568520941287310e-03  -3.9013806084629617e-03  -4.0182204354690864e-03  -4.1071701548210130e-03  -4.1680857703891450e-03  -4.2008845455695828e-03  -4.2055490193406379e-03  -4.1821312049884832e-03  -4.1307569744625924e-03  -4.0516306321754696e-03  -3.9450396827759200e-03  -3.8113597980246553e-03  -3.6510599884101197e-03  -3.4647079855826563e-03  -3.2529758420734574e-03  -3.0166457551142551e-03  -2.7566161216957233e-03  -2.4739078323051788e-03  -2.1696708110721433e-03  -1.8451908103299822e-03  -1.5018964678740999e-03  -1.1413666354649884e-03  -7.6533798738862610e-04  -3.7571291814553616e-04  2.5432261406665577e-05  4.3583881988789133e-04  8.5305678340687533e-04  1.2744357857369555e-03  1.6971155804615034e-03  2.1180162047528001e-03  2.5338277843665437e-03  2.9409999694348793e-03  3.3357309907588394e-03  3.7139563265791505e-03  4.0713369703046622e-03  4.4032472904794000e-03  4.7047624754796083e-03  4.9706455571866858e-03  5.1953340103495331e-03  5.3729259277254275e-03  5.4971657755684637e-03  5.5614297397620542e-03  5.5587106798202337e-03  5.4816027156347792e-03  5.3222854788714533e-03  5.0725080644109929e-03  4.7235727118456299e-03  4.2663182242276059e-03  3.6911030796921811e-03  2.9877881000910243e-03  2.1457184063197569e-03  1.1537042287448874e-03  4.1780083778520933e-19  -9.5049501648498260e-20  -5.2940009377827211e-04  -1.0326614438061373e-03  -1.5090068388083019e-03  -1.9576877318720613e-03  -2.3779868010553418e-03  -2.7692205179912018e-03  -3.1307417944535254e-03  -3.4619427595121320e-03  -3.7622577028036692e-03  -4.0311662054492966e-03  -4.2681964702515054e-03  -4.4729288565464181e-03  -4.6449996216700777e-03  -4.7841048695269860e-03  -4.8900047065172543e-03  -4.9625276055454432e-03  -5.0015749796465930e-03  -5.0071259676964831e-03  -4.9792424356012817e-03  -4.9180741972231351e-03  -4.8238644600710505e-03  -4.6969555014678673e-03  -4.5377945815032305e-03  -4.3469400996108271e-03  -4.1250680020801771e-03  -3.8729784482398966e-03  -3.5916027434424688e-03  -3.2820105473468641e-03  -2.9454173663444202e-03  -2.5831923393073342e-03  -2.1968663261650221e-03  -1.7881403091307819e-03  -1.3588941167145731e-03  -9.1119548096444823e-04  -4.4730943868057912e-04  3.0291912360386776e-05  5.1891929085107723e-04  1.0156557314834145e-03  1.5173456947343712e-03  2.0205837748694471e-03  2.5217029939628064e-03  3.0167626696342401e-03  3.5015358441928567e-03  3.9714962629856226e-03  4.4218048900185611e-03  4.8472959493997408e-03  5.2424624819135193e-03  5.6014414071542951e-03  5.9179980832185916e-03  6.1855103580734311e-03  6.3969521094705550e-03  6.5448762736878508e-03  6.6213973673522669e-03  6.6181735107673327e-03  6.5263879646975647e-03  6.3367301938257424e-03  6.0393764663181733e-03  5.6239699858584204e-03  5.0796005245703690e-03  4.3947834766602601e-03  3.5574381802896699e-03  2.5548652634129368e-03  1.3737226751888774e-03  -9.7578195523695361e-19  -6.4211121905563519e-20  -6.1730754266574902e-04  -1.2041208717180753e-03  -1.7595388454931188e-03  -2.2826926004772632e-03  -2.7727486866956806e-03  -3.2289122380323356e-03  -3.6504302319174745e-03  -4.0365948833896593e-03  -4.3867472074926783e-03  -4.7002807738379983e-03  -4.9766456691075428e-03  -5.2153526775629254e-03  -5.4159776859907640e-03  -5.5781663174993990e-03  -5.7016387977169014e-03  -5.7861950568252139e-03  -5.8317200712006464e-03  -5.8381894490031391e-03  -5.8056752647325533e-03  -5.7343521484653805e-03  -5.6245036361583824e-03  -5.4765287880350856e-03  -5.2909490826518312e-03  -5.0684155947731662e-03  -4.8097164656783434e-03  -4.5157846749777925e-03  -4.1877061234472596e-03  -3.8267280367953209e-03  -3.4342677006707028e-03  -3.0119215375954962e-03  -2.5614745368796286e-03  -2.0849100489358013e-03  -1.5844199557705394e-03  -1.0624152297790154e-03  -5.2153689331489576e-04  3.5332608157894974e-05  6.0505760620276007e-04  1.1842369694046813e-03  1.7691914095100114e-03  2.3559503197578429e-03  2.9402381312544986e-03  3.5174601731135175e-03  4.0826880220413506e-03  4.6306443271207139e-03  5.1556870957634336e-03  5.6517934272135410e-03  6.1125426806249231e-03  6.5310990656676947e-03  6.9001936448804119e-03  7.2121057386097228e-03  7.4586437253555647e-03  7.6311252325645795e-03  7.7203567151333946e-03  7.7166124205695101e-03  7.6096127399751688e-03  7.3885019412502995e-03  7.0418252729249698e-03  6.5575054109417901e-03  5.9228181934174876e-03  5.1243675477782406e-03  4.1480594614748921e-03  2.9790747880165539e-03  1.6018406279421861e-03  6.7796846398560630e-19  -1.9316435749542134e-19  -7.0739829751083132e-04  -1.3798382559541710e-03  -2.0162916034211628e-03  -2.6157661730031160e-03  -3.1773095843975739e-03  -3.7000129930359373e-03  -4.1830149493072280e-03  -4.6255054056846684e-03  -5.0267299027979247e-03  -5.3859939584950485e-03  -5.7026676778144077e-03  -5.9761905970083674e-03  -6.2060767713900209e-03  -6.3919201146314091e-03  -6.5333999959680299e-03  -6.6302871012893800e-03  -6.6824495640930189e-03  -6.6898593725719111e-03  -6.6525990595645585e-03  -6.5708686826404629e-03  -6.4449931021644657e-03  -6.2754295657545143e-03  -6.0627756080985614e-03  -5.8077772756256916e-03  -5.5113376860284656e-03  -5.1745259331139222e-03  -4.7985863479203259e-03  -4.3849481274802768e-03  -3.9352353430420085e-03  -3.45127733998135