<?xml version="1.0"?>
<VTKFile type="UnstructuredGrid"  version="0.1"  >
<UnstructuredGrid>
<Piece  NumberOfPoints="1089" NumberOfCells="1024">
<Points>
<DataArray  type="Float64"  NumberOfComponents="3"  format="ascii">0 0 0  0.03125 0 0  0.0625 0 0  0.09375 0 0  0.125 0 0  0.15625 0 0  0.1875 0 0  0.21875 0 0  0.25 0 0  0.28125 0 0  0.3125 0 0  0.34375 0 0  0.375 0 0  0.40625 0 0  0.4375 0 0  0.46875 0 0  0.5 0 0  0.53125 0 0  0.5625 0 0  0.59375 0 0  0.625 0 0  0.65625 0 0  0.6875 0 0  0.71875 0 0  0.75 0 0  0.78125 0 0  0.8125 0 0  0.84375 0 0  0.875 0 0  0.90625 0 0  0.9375 0 0  0.96875 0 0  1 0 0  0 0.03125 0  0.03125 0.03125 0  0.0625 0.03125 0  0.09375 0.03125 0  0.125 0.03125 0  0.15625 0.03125 0  0.1875 0.03125 0  0.21875 0.03125 0  0.25 0.03125 0  0.28125 0.03125 0  0.3125 0.03125 0  0.34375 0.03125 0  0.375 0.03125 0  0.40625 0.03125 0  0.4375 0.03125 0  0.46875 0.03125 0  0.5 0.03125 0  0.53125 0.03125 0  0.5625 0.03125 0  0.59375 0.03125 0  0.625 0.03125 0  0.65625 0.03125 0  0.6875 0.03125 0  0.71875 0.03125 0  0.75 0.03125 0  0.78125 0.03125 0  0.8125 0.03125 0  0.84375 0.03125 0  0.875 0.03125 0  0.90625 0.03125 0  0.9375 0.03125 0  0.96875 0.03125 0  1 0.03125 0  0 0.0625 0  0.03125 0.0625 0  0.0625 0.0625 0  0.09375 0.0625 0  0.125 0.0625 0  0.15625 0.0625 0  0.1875 0.0625 0  0.21875 0.0625 0  0.25 0.0625 0  0.28125 0.0625 0  0.3125 0.0625 0  0.34375 0.0625 0  0.375 0.0625 0  0.40625 0.0625 0  0.4375 0.0625 0  0.46875 0.0625 0  0.5 0.0625 0  0.53125 0.0625 0  0.5625 0.0625 0  0.59375 0.0625 0  0.625 0.0625 0  0.65625 0.0625 0  0.6875 0.0625 0  0.71875 0.0625 0  0.75 0.0625 0  0.78125 0.0625 0  0.8125 0.0625 0  0.84375 0.0625 0  0.875 0.0625 0  0.90625 0.0625 0  0.9375 0.0625 0  0.96875 0.0625 0  1 0.0625 0  0 0.09375 0  0.03125 0.09375 0  0.0625 0.09375 0  0.09375 0.09375 0  0.125 0.09375 0  0.15625 0.09375 0  0.1875 0.09375 0  0.21875 0.09375 0  0.25 0.09375 0  0.28125 0.09375 0  0.3125 0.09375 0  0.34375 0.09375 0  0.375 0.09375 0  0.40625 0.09375 0  0.4375 0.09375 0  0.46875 0.09375 0  0.5 0.09375 0  0.53125 0.09375 0  0.5625 0.09375 0  0.59375 0.09375 0  0.625 0.09375 0  0.65625 0.09375 0  0.6875 0.09375 0  0.71875 0.09375 0  0.75 0.09375 0  0.78125 0.09375 0  0.8125 0.09375 0  0.84375 0.09375 0  0.875 0.09375 0  0.90625 0.09375 0  0.9375 0.09375 0  0.96875 0.09375 0  1 0.09375 0  0 0.125 0  0.03125 0.125 0  0.0625 0.125 0  0.09375 0.125 0  0.125 0.125 0  0.15625 0.125 0  0.1875 0.125 0  0.21875 0.125 0  0.25 0.125 0  0.28125 0.125 0  0.3125 0.125 0  0.34375 0.125 0  0.375 0.125 0  0.40625 0.125 0  0.4375 0.125 0  0.46875 0.125 0  0.5 0.125 0  0.53125 0.125 0  0.5625 0.125 0  0.59375 0.125 0  0.625 0.125 0  0.65625 0.125 0  0.6875 0.125 0  0.71875 0.125 0  0.75 0.125 0  0.78125 0.125 0  0.8125 0.125 0  0.84375 0.125 0  0.875 0.125 0  0.90625 0.125 0  0.9375 0.125 0  0.96875 0.125 0  1 0.125 0  0 0.15625 0  0.03125 0.15625 0  0.0625 0.15625 0  0.09375 0.15625 0  0.125 0.15625 0  0.15625 0.15625 0  0.1875 0.15625 0  0.21875 0.15625 0  0.25 0.15625 0  0.28125 0.15625 0  0.3125 0.15625 0  0.34375 0.15625 0  0.375 0.15625 0  0.40625 0.15625 0  0.4375 0.15625 0  0.46875 0.15625 0  0.5 0.15625 0  0.53125 0.15625 0  0.5625 0.15625 0  0.59375 0.15625 0  0.625 0.15625 0  0.65625 0.15625 0  0.6875 0.15625 0  0.71875 0.15625 0  0.75 0.15625 0  0.78125 0.15625 0  0.8125 0.15625 0  0.84375 0.15625 0  0.875 0.15625 0  0.90625 0.15625 0  0.9375 0.15625 0  0.96875 0.15625 0  1 0.15625 0  0 0.1875 0  0.03125 0.1875 0  0.0625 0.1875 0  0.09375 0.1875 0  0.125 0.1875 0  0.15625 0.1875 0  0.1875 0.1875 0  0.21875 0.1875 0  0.25 0.1875 0  0.28125 0.1875 0  0.3125 0.1875 0  0.34375 0.1875 0  0.375 0.1875 0  0.40625 0.1875 0  0.4375 0.1875 0  0.46875 0.1875 0  0.5 0.1875 0  0.53125 0.1875 0  0.5625 0.1875 0  0.59375 0.1875 0  0.625 0.1875 0  0.65625 0.1875 0  0.6875 0.1875 0  0.71875 0.1875 0  0.75 0.1875 0  0.78125 0.1875 0  0.8125 0.1875 0  0.84375 0.1875 0  0.875 0.1875 0  0.90625 0.1875 0  0.9375 0.1875 0  0.96875 0.1875 0  1 0.1875 0  0 0.21875 0  0.03125 0.21875 0  0.0625 0.21875 0  0.09375 0.21875 0  0.125 0.21875 0  0.15625 0.21875 0  0.1875 0.21875 0  0.21875 0.21875 0  0.25 0.21875 0  0.28125 0.21875 0  0.3125 0.21875 0  0.34375 0.21875 0  0.375 0.21875 0  0.40625 0.21875 0  0.4375 0.21875 0  0.46875 0.21875 0  0.5 0.21875 0  0.53125 0.21875 0  0.5625 0.21875 0  0.59375 0.21875 0  0.625 0.21875 0  0.65625 0.21875 0  0.6875 0.21875 0  0.71875 0.21875 0  0.75 0.21875 0  0.78125 0.21875 0  0.8125 0.21875 0  0.84375 0.21875 0  0.875 0.21875 0  0.90625 0.21875 0  0.9375 0.21875 0  0.96875 0.21875 0  1 0.21875 0  0 0.25 0  0.03125 0.25 0  0.0625 0.25 0  0.09375 0.25 0  0.125 0.25 0  0.15625 0.25 0  0.1875 0.25 0  0.21875 0.25 0  0.25 0.25 0  0.28125 0.25 0  0.3125 0.25 0  0.34375 0.25 0  0.375 0.25 0  0.40625 0.25 0  0.4375 0.25 0  0.46875 0.25 0  0.5 0.25 0  0.53125 0.25 0  0.5625 0.25 0  0.59375 0.25 0  0.625 0.25 0  0.65625 0.25 0  0.6875 0.25 0  0.71875 0.25 0  0.75 0.25 0  0.78125 0.25 0  0.8125 0.25 0  0.84375 0.25 0  0.875 0.25 0  0.90625 0.25 0  0.9375 0.25 0  0.96875 0.25 0  1 0.25 0  0 0.28125 0  0.03125 0.28125 0  0.0625 0.28125 0  0.09375 0.28125 0  0.125 0.28125 0  0.15625 0.28125 0  0.1875 0.28125 0  0.21875 0.28125 0  0.25 0.28125 0  0.28125 0.28125 0  0.3125 0.28125 0  0.34375 0.28125 0  0.375 0.28125 0  0.40625 0.28125 0  0.4375 0.28125 0  0.46875 0.28125 0  0.5 0.28125 0  0.53125 0.28125 0  0.5625 0.28125 0  0.59375 0.28125 0  0.625 0.28125 0  0.65625 0.28125 0  0.6875 0.28125 0  0.71875 0.28125 0  0.75 0.28125 0  0.78125 0.28125 0  0.8125 0.28125 0  0.84375 0.28125 0  0.875 0.28125 0  0.90625 0.28125 0  0.9375 0.28125 0  0.96875 0.28125 0  1 0.28125 0  0 0.3125 0  0.03125 0.3125 0  0.0625 0.3125 0  0.09375 0.3125 0  0.125 0.3125 0  0.15625 0.3125 0  0.1875 0.3125 0  0.21875 0.3125 0  0.25 0.3125 0  0.28125 0.3125 0  0.3125 0.3125 0  0.34375 0.3125 0  0.375 0.3125 0  0.40625 0.3125 0  0.4375 0.3125 0  0.46875 0.3125 0  0.5 0.3125 0  0.53125 0.3125 0  0.5625 0.3125 0  0.59375 0.3125 0  0.625 0.3125 0  0.65625 0.3125 0  0.6875 0.3125 0  0.71875 0.3125 0  0.75 0.3125 0  0.78125 0.3125 0  0.8125 0.3125 0  0.84375 0.3125 0  0.875 0.3125 0  0.90625 0.3125 0  0.9375 0.3125 0  0.96875 0.3125 0  1 0.3125 0  0 0.34375 0  0.03125 0.34375 0  0.0625 0.34375 0  0.09375 0.34375 0  0.125 0.34375 0  0.15625 0.34375 0  0.1875 0.34375 0  0.21875 0.34375 0  0.25 0.34375 0  0.28125 0.34375 0  0.3125 0.34375 0  0.34375 0.34375 0  0.375 0.34375 0  0.40625 0.34375 0  0.4375 0.34375 0  0.46875 0.34375 0  0.5 0.34375 0  0.53125 0.34375 0  0.5625 0.34375 0  0.59375 0.34375 0  0.625 0.34375 0  0.65625 0.34375 0  0.6875 0.34375 0  0.71875 0.34375 0  0.75 0.34375 0  0.78125 0.34375 0  0.8125 0.34375 0  0.84375 0.34375 0  0.875 0.34375 0  0.90625 0.34375 0  0.9375 0.34375 0  0.96875 0.34375 0  1 0.34375 0  0 0.375 0  0.03125 0.375 0  0.0625 0.375 0  0.09375 0.375 0  0.125 0.375 0  0.15625 0.375 0  0.1875 0.375 0  0.21875 0.375 0  0.25 0.375 0  0.28125 0.375 0  0.3125 0.375 0  0.34375 0.375 0  0.375 0.375 0  0.40625 0.375 0  0.4375 0.375 0  0.46875 0.375 0  0.5 0.375 0  0.53125 0.375 0  0.5625 0.375 0  0.59375 0.375 0  0.625 0.375 0  0.65625 0.375 0  0.6875 0.375 0  0.71875 0.375 0  0.75 0.375 0  0.78125 0.375 0  0.8125 0.375 0  0.84375 0.375 0  0.875 0.375 0  0.90625 0.375 0  0.9375 0.375 0  0.96875 0.375 0  1 0.375 0  0 0.40625 0  0.03125 0.40625 0  0.0625 0.40625 0  0.09375 0.40625 0  0.125 0.40625 0  0.15625 0.40625 0  0.1875 0.40625 0  0.21875 0.40625 0  0.25 0.40625 0  0.28125 0.40625 0  0.3125 0.40625 0  0.34375 0.40625 0  0.375 0.40625 0  0.40625 0.40625 0  0.4375 0.40625 0  0.46875 0.40625 0  0.5 0.40625 0  0.53125 0.40625 0  0.5625 0.40625 0  0.59375 0.40625 0  0.625 0.40625 0  0.65625 0.40625 0  0.6875 0.40625 0  0.71875 0.40625 0  0.75 0.40625 0  0.78125 0.40625 0  0.8125 0.40625 0  0.84375 0.40625 0  0.875 0.40625 0  0.90625 0.40625 0  0.9375 0.40625 0  0.96875 0.40625 0  1 0.40625 0  0 0.4375 0  0.03125 0.4375 0  0.0625 0.4375 0  0.09375 0.4375 0  0.125 0.4375 0  0.15625 0.4375 0  0.1875 0.4375 0  0.21875 0.4375 0  0.25 0.4375 0  0.28125 0.4375 0  0.3125 0.4375 0  0.34375 0.4375 0  0.375 0.4375 0  0.40625 0.4375 0  0.4375 0.4375 0  0.46875 0.4375 0  0.5 0.4375 0  0.53125 0.4375 0  0.5625 0.4375 0  0.59375 0.4375 0  0.625 0.4375 0  0.65625 0.4375 0  0.6875 0.4375 0  0.71875 0.4375 0  0.75 0.4375 0  0.78125 0.4375 0  0.8125 0.4375 0  0.84375 0.4375 0  0.875 0.4375 0  0.90625 0.4375 0  0.9375 0.4375 0  0.96875 0.4375 0  1 0.4375 0  0 0.46875 0  0.03125 0.46875 0  0.0625 0.46875 0  0.09375 0.46875 0  0.125 0.46875 0  0.15625 0.46875 0  0.1875 0.46875 0  0.21875 0.46875 0  0.25 0.46875 0  0.28125 0.46875 0  0.3125 0.46875 0  0.34375 0.46875 0  0.375 0.46875 0  0.40625 0.46875 0  0.4375 0.46875 0  0.46875 0.46875 0  0.5 0.46875 0  0.53125 0.46875 0  0.5625 0.46875 0  0.59375 0.46875 0  0.625 0.46875 0  0.65625 0.46875 0  0.6875 0.46875 0  0.71875 0.46875 0  0.75 0.46875 0  0.78125 0.46875 0  0.8125 0.46875 0  0.84375 0.46875 0  0.875 0.46875 0  0.90625 0.46875 0  0.9375 0.46875 0  0.96875 0.46875 0  1 0.46875 0  0 0.5 0  0.03125 0.5 0  0.0625 0.5 0  0.09375 0.5 0  0.125 0.5 0  0.15625 0.5 0  0.1875 0.5 0  0.21875 0.5 0  0.25 0.5 0  0.28125 0.5 0  0.3125 0.5 0  0.34375 0.5 0  0.375 0.5 0  0.40625 0.5 0  0.4375 0.5 0  0.46875 0.5 0  0.5 0.5 0  0.53125 0.5 0  0.5625 0.5 0  0.59375 0.5 0  0.625 0.5 0  0.65625 0.5 0  0.6875 0.5 0  0.71875 0.5 0  0.75 0.5 0  0.78125 0.5 0  0.8125 0.5 0  0.84375 0.5 0  0.875 0.5 0  0.90625 0.5 0  0.9375 0.5 0  0.96875 0.5 0  1 0.5 0  0 0.53125 0  0.03125 0.53125 0  0.0625 0.53125 0  0.09375 0.53125 0  0.125 0.53125 0  0.15625 0.53125 0  0.1875 0.53125 0  0.21875 0.53125 0  0.25 0.53125 0  0.28125 0.53125 0  0.3125 0.53125 0  0.34375 0.53125 0  0.375 0.53125 0  0.40625 0.53125 0  0.4375 0.53125 0  0.46875 0.53125 0  0.5 0.53125 0  0.53125 0.53125 0  0.5625 0.53125 0  0.59375 0.53125 0  0.625 0.53125 0  0.65625 0.53125 0  0.6875 0.53125 0  0.71875 0.53125 0  0.75 0.53125 0  0.78125 0.531
[...]
<PointData  Scalars="v_sol"> 
<DataArray  type="Float64"  Name="v_sol"  format="ascii">6.0204071426618521e-05  3.7812622063169380e-04  4.6076679511365708e-04  2.9784482601461604e-04  6.9258525932029217e-05  -6.0233622473877677e-05  -1.9887266275048348e-04  -5.2593929750762401e-04  -8.2579118078560630e-04  -1.6207658958582514e-03  -3.2380968160429309e-03  -4.5845861523728069e-03  -4.7051342151532153e-03  -3.6489663412470150e-03  -2.0514719179278613e-03  -4.0226691476030648e-04  1.0165137243009169e-03  2.1380819851527840e-03  2.9666219262763217e-03  3.5524444838755218e-03  3.9097507015879423e-03  4.0066475325302876e-03  3.7406396563399100e-03  3.0116160311485056e-03  1.8264655138471046e-03  3.6628936766751091e-04  -9.6691840232613225e-04  -1.5376807771976095e-03  -1.4064561100547422e-03  -9.9680677898273317e-04  -6.4232297436860866e-04  -3.4069348451820121e-04  -3.6331563607538198e-05  9.8890845414244792e-05  -2.1688543226502429e-03  -2.7784693535989596e-03  -1.6621232505141983e-03  -4.0276918030972226e-04  1.3283642911402020e-04  5.9287838451711273e-04  1.6971992132717004e-03  3.6849631151908875e-03  8.2301053907709292e-03  1.3943166708540119e-02  1.8158549971189614e-02  2.0451119031304203e-02  2.0301434585147295e-02  1.7348679795257720e-02  1.1557797179962262e-02  3.4095663606330839e-03  -6.2687222884542700e-03  -1.6218116005360467e-02  -2.4795804600328260e-02  -3.0002385606547114e-02  -3.0078345060980310e-02  -2.4415382092243029e-02  -1.4584494667091073e-02  -4.0001497386462272e-03  4.0376937395292505e-03  8.1998142711574989e-03  8.7260646985186756e-03  7.1465785161456217e-03  4.9685213078938415e-03  3.2200637840324713e-03  1.6116955688797482e-03  -1.8511461193605394e-04  -3.8952226971126049e-04  -7.8755119049983557e-03  -8.6108699011189140e-03  -4.0880183973842736e-03  8.0806483101643399e-04  4.8074414518496740e-03  1.0191349759682009e-02  1.9832388377045210e-02  3.4446139980643671e-02  5.1017362444071200e-02  6.4205892407979220e-02  6.9584228502930848e-02  6.6436870792681957e-02  5.6153265276764015e-02  4.0708232024974353e-02  2.1651105950950763e-02  1.7641988088919634e-04  -2.2690625881479975e-02  -4.5568810216042172e-02  -6.6321041242172224e-02  -8.1705722206270689e-02  -8.7783526488709324e-02  -8.1385447931241015e-02  -6.2630237814568224e-02  -3.6643894391917814e-02  -1.1644769761479145e-02  6.5539051872434313e-03  1.6604611595412998e-02  1.8775822644270714e-02  1.6118764535624257e-02  1.1873377454025454e-02  7.0728150149245023e-03  2.5035832285757510e-04  -1.2883977598128625e-03  -1.4899445513663470e-02  -1.2985682678563405e-02  -1.9060246259170518e-03  9.4455514522411368e-03  2.1523322818659429e-02  4.0781136774504519e-02  6.8205962582541496e-02  9.6801945845359949e-02  1.1676725522736894e-01  1.2334927437731252e-01  1.1742240967104212e-01  1.0212342300943290e-01  8.0774841179373585e-02  5.5703038298667566e-02  2.8262070782108767e-02  -9.8834005207886215e-04  -3.1755131439361407e-02  -6.3576792450489861e-02  -9.5094787925820379e-02  -1.2335195967025817e-01  -1.4323569728640229e-01  -1.4819236622527995e-01  -1.3307138766992818e-01  -9.8913885500188967e-02  -5.5933315621194968e-02  -1.8662583777995758e-02  5.8824026258403094e-03  1.9253697986413808e-02  2.2672076905899698e-02  2.0138987664732134e-02  1.3616752542919129e-02  9.7489915201565125e-04  -2.8484649360564426e-03  -2.1238583788811861e-02  -1.2196997333491151e-02  8.6528492751402827e-03  3.1119427385593444e-02  6.0305307264542231e-02  1.0004090887994796e-01  1.4009386278842495e-01  1.6660825311834915e-01  1.7482834552979015e-01  1.6712036882397929e-01  1.4817434440655380e-01  1.2256549496261387e-01  9.3523241472438248e-02  6.2941952218835084e-02  3.1537866411329211e-02  -6.4065451246260419e-04  -3.3961121276276013e-02  -6.8822358449925139e-02  -1.0533587782253687e-01  -1.4252138204364789e-01  -1.7710385136420428e-01  -2.0214569899865981e-01  -2.0744311139095375e-01  -1.8394893570626858e-01  -1.3242078996793238e-01  -6.9874431981506377e-02  -2.0641173339006901e-02  7.4575028476574542e-03  2.1478760307162174e-02  2.4201645789109966e-02  1.8336234807992315e-02  1.4656683180308933e-03  -5.1884918096726370e-03  -2.3402561953022375e-02  -1.9498505903771985e-03  3.2301584089586020e-02  7.2184737960973688e-02  1.2307895872833940e-01  1.7474651658929161e-01  2.0934713053760082e-01  2.2039237297902281e-01  2.1139740215615468e-01  1.8885175623584055e-01  1.5928294695954462e-01  1.2701571485194221e-01  9.4450817867097803e-02  6.2285036264382511e-02  3.0504224964306884e-02  -1.3354674493177197e-03  -3.3682251203259295e-02  -6.7096776149801085e-02  -1.0215587698106955e-01  -1.3953932301716010e-01  -1.7930969682042647e-01  -2.1915726309253677e-01  -2.5114338876003089e-01  -2.6036804432793120e-01  -2.3072329515010309e-01  -1.6030925745857705e-01  -7.5540552853732471e-02  -1.5912756649407379e-02  1.2857517896413553e-02  2.4163636357662825e-02  2.0551261825073077e-02  1.6179842092317368e-03  -7.5583795155066491e-03  -1.7168419494027223e-02  2.0571336476000436e-02  7.2141137884535508e-02  1.3252502564484392e-01  1.9626059539320584e-01  2.4216766557032099e-01  2.5889906726455664e-01  2.5036569418514548e-01  2.2529922272594261e-01  1.9277140012712615e-01  1.5856518293637217e-01  1.2516116517058173e-01  9.2919987382771990e-02  6.1330560590547978e-02  2.9904033003952588e-02  -1.7779010858297822e-03  -3.3874482263104015e-02  -6.6517979835640617e-02  -9.9767905371891549e-02  -1.3398262115373602e-01  -1.7009897587722592e-01  -2.0962600970874046e-01  -2.5244065102441510e-01  -2.9103174759072475e-01  -3.0518672273420810e-01  -2.6863800774245750e-01  -1.7542608919683075e-01  -6.7569060238594617e-02  -4.6483713742950907e-03  2.0416533598703622e-02  2.1182838554049833e-02  2.1053758968867758e-03  -8.1438605373829447e-03  6.3383324341026340e-04  5.6372001963149884e-02  1.2652685929146806e-01  2.0137845524988682e-01  2.6245704818247484e-01  2.8994513446901138e-01  2.8539824106921147e-01  2.6005702883685022e-01  2.2583348272687759e-01  1.9080426975520970e-01  1.5734677612138334e-01  1.2545166109986139e-01  9.4027856305357857e-02  6.2633966910038433e-02  3.0882053586498266e-02  -1.2110424998900047e-03  -3.3767308437597648e-02  -6.6687705814580667e-02  -9.9941967352404973e-02  -1.3327964809109050e-01  -1.6673651733040709e-01  -2.0114919262486058e-01  -2.3923210687268023e-01  -2.8339228483713319e-01  -3.2692621080458989e-01  -3.4283224194300271e-01  -2.9220676195340345e-01  -1.6828855537525336e-01  -4.3061980741482611e-02  9.0889571416753207e-03  2.2569585651599920e-02  2.7564867035771846e-03  -4.9640913497006316e-03  3.0835945255701505e-02  1.0355915163585672e-01  1.8850702301955100e-01  2.6573466581402738e-01  3.1134965175265095e-01  3.1665629460335953e-01  2.9455037791182542e-01  2.5993540015309302e-01  2.2431342145301064e-01  1.9093418455070454e-01  1.5921621436035679e-01  1.2789156711651842e-01  9.6314122613808673e-02  6.4453623187264789e-02  3.2248563530862015e-02  -2.2380509539025347e-04  -3.3061152310666773e-02  -6.6216661074456451e-02  -9.9700287942710575e-02  -1.3331917779315955e-01  -1.6677469596373606e-01  -1.9973986272683289e-01  -2.3295486054324810e-01  -2.7014531354588694e-01  -3.1615216185772488e-01  -3.6314920250564237e-01  -3.7280279059314597e-01  -2.9248331388800075e-01  -1.2931836457625026e-01  -9.8858474198285883e-03  1.9975343277470872e-02  3.8679865698109939e-03  2.7147823917174864e-03  7.1367971777208841e-02  1.5694206382513964e-01  2.4918513743737714e-01  3.1759455750946775e-01  3.4243598018688198e-01  3.2845125248553625e-01  2.9566571888158916e-01  2.5893389926287408e-01  2.2532148366615309e-01  1.9350825377450828e-01  1.6224589240444273e-01  1.3049030797756014e-01  9.8489260396706219e-02  6.6191351187234890e-02  3.3747729931910823e-02  1.0454675074715663e-03  -3.1891985546382798e-02  -6.5159257221140382e-02  -9.8721928777870463e-02  -1.3259781332731585e-01  -1.6655984930333698e-01  -2.0017100165359483e-01  -2.3271901618870763e-01  -2.6504287055921993e-01  -3.0268335611449132e-01  -3.5281637841599361e-01  -4.0078216889117041e-01  -3.8795338863766005e-01  -2.5377255594020193e-01  -5.8653981021197489e-02  1.1834730406653612e-02  9.4342035872337915e-03  1.3716953183709208e-02  1.1799386188727973e-01  2.1070718153247459e-01  3.0253032474395425e-01  3.5529288712004853e-01  3.5987229358049860e-01  3.3244083334869801e-01  2.9555233587303559e-01  2.6032226257017821e-01  2.2846285166435118e-01  1.9691982085095294e-01  1.6520114852607454e-01  1.3287719103127052e-01  1.0054999105941617e-01  6.7986423844411739e-02  3.5400075955036400e-02  2.5508925300133331e-03  -3.0444735984129893e-02  -6.3745254617803726e-02  -9.7262390480839636e-02  -1.3111709866186930e-01  -1.6527067655304081e-01  -1.9969114391720522e-01  -2.3365816487696917e-01  -2.6593558762445196e-01  -2.9765564432626779e-01  -3.3813365189166888e-01  -3.9530579033350594e-01  -4.3492757245476676e-01  -3.6830574940824201e-01  -1.5839155666455956e-01  2.4614598329436416e-03  1.1729410525877641e-02  2.5502231647146434e-02  1.6570055218667970e-01  2.6011302133978070e-01  3.4591253729200233e-01  3.8103802728423886e-01  3.6947638404004612e-01  3.3440463832989914e-01  2.9717761141138066e-01  2.6368648969744790e-01  2.3216397379859921e-01  2.0009337151065679e-01  1.6778337198435569e-01  1.3515252789279752e-01  1.0264963932267833e-01  6.9954187899472567e-02  3.7248371987918312e-02  4.2959335815004936e-03  -2.8786497704386245e-02  -6.2151645432107279e-02  -9.5714442049345191e-02  -1.2955296859579082e-01  -1.6362713443159488e-01  -1.9808126344071389e-01  -2.3292504052508886e-01  -2.6729508657517759e-01  -2.9918050077624225e-01  -3.3148329428280771e-01  -3.7978935116966511e-01  -4.4367941271654865e-01  -4.4589263103078425e-01  -2.7804073128498508e-01  -2.6322206079583209e-02  5.8409014437014444e-03  3.5225934276667516e-02  2.0992506249664664e-01  3.0253504375890866e-01  3.7943336379677184e-01  3.9842598616570385e-01  3.7538680917506612e-01  3.3665393104684610e-01  3.0039379385862391e-01  2.6771529507781427e-01  2.3574776131839700e-01  2.0310033042812886e-01  1.7040596952452941e-01  1.3760194387603863e-01  1.0491564378036596e-01  7.2099544136789637e-02  3.9278073986024307e-02  6.2642580268440669e-03  -2.6876038613606663e-02  -6.0268184882096600e-02  -9.3884174419975458e-02  -1.2779672073164164e-01  -1.6198466386141830e-01  -1.9648919349627481e-01  -2.3144283939983237e-01  -2.6688673037492416e-01  -3.0128079213712089e-01  -3.3233141293922042e-01  -3.6922644303249419e-01  -4.3302346180048085e-01  -4.8495123149412456e-01  -3.8438497447112052e-01  -9.2240377190684064e-02  1.1142922525824902e-02  4.0686032542161646e-02  2.4725319023341860e-01  3.3692159578328362e-01  4.0435021093139545e-01  4.1055881750677331e-01  3.8014727500913309e-01  3.4000155949331601e-01  3.0452899561960806e-01  2.7177426440889701e-01  2.3909284242219525e-01  2.0594493842797862e-01  1.7294807426553604e-01  1.3998159580753880e-01  1.0716317637549916e-01  7.4295727909716724e-02  4.1414577636068969e-02  8.3876157430883332e-03  -2.4768116808290535e-02  -5.8152434578897939e-02  -9.1781506898445844e-02  -1.2571961741966622e-01  -1.5999132073133218e-01  -1.9463575801298105e-01  -2.2973734466797371e-01  -2.6558432495272838e-01  -3.0186582637612530e-01  -3.3537396580352441e-01  -3.6659633234532324e-01  -4.1922917890787470e-01  -4.9610296559440203e-01  -4.6651565282162022e-01  -1.8488619169440926e-01  3.1666127556458958e-02  4.0821613923425613e-02  2.7538353776515390e-01  3.6329504006580915e-01  4.2214077673179085e-01  4.1951537442190906e-01  3.8452042206150355e-01  3.4384680414004498e-01  3.0866480981035826e-01  2.7547207720962458e-01  2.4218477944809019e-01  2.0870385753274978e-01  1.7549983506932651e-01  1.4242432269416985e-01  1.0951277485994237e-01  7.6587122953321013e-02  4.3672474945544985e-02  1.0680417722970469e-02  -2.2432099260410135e-02  -5.5759818644760470e-02  -8.9360426007022847e-02  -1.2330926534894616e-01  -1.5766301143030287e-01  -1.9246717217840478e-01  -2.2775721242008473e-01  -2.6373886702625626e-01  -3.0091586129542330e-01  -3.3757950654043972e-01  -3.6888953422823123e-01  -4.0982599744484255e-01  -4.9248328507570005e-01  -5.2277702738165566e-01  -2.8218968004516487e-01  4.9267059884060736e-02  3.5689778538935180e-02  2.9296907887324869e-01  3.8196437402211425e-01  4.3401754235723272e-01  4.2636090215758249e-01  3.8878974351755402e-01  3.4791784853863283e-01  3.1256370357971119e-01  2.7883059249248893e-01  2.4502469915531772e-01  2.1124968170251887e-01  1.7784953936066231e-01  1.4467532744007405e-01  1.1169651715296124e-01  7.8791811291972533e-02  4.5967149221137045e-02  1.3094688496273803e-02  -1.9901236626330674e-02  -5.3100218433639046e-02  -8.6588829839555639e-02  -1.2045975666221395e-01  -1.5480660420564632e-01  -1.8971735936017317e-01  -2.2527264862422405e-01  -2.6154922186401020e-01  -2.9901586639647226e-01  -3.3776224940661370e-01  -3.7234818232571854e-01  -4.0603009519915778e-01  -4.8282905302632234e-01  -5.5779906807960711e-01  -3.6995038221103538e-01  5.5045367278490243e-02  2.6338303252991850e-02  2.9923261582268451e-01  3.9325192066560888e-01  4.4075221331751618e-01  4.3142829656301029e-01  3.9263631588844394e-01  3.5155024585411260e-01  3.1579973434170111e-01  2.8164128747217015e-01  2.4749643898376938e-01  2.1354397384143620e-01  1.8003317312072209e-01  1.4682663836356732e-01  1.1386503100171692e-01  8.1064894409859103e-02  4.8364232923152728e-02  1.5639374851378490e-02  -1.7160650652970892e-02  -5.0145888414718308e-02  -8.3439387997318940e-02  -1.1715235270588348e-01  -1.5140772915657316e-01  -1.8631614829177828e-01  -2.2198953132686972e-01  -2.5857331534956163e-01  -2.9633662180110365e-01  -3.3616787522488778e-01  -3.7445394318998870e-01  -4.0577628844908487e-01  -4.7184757304853553e-01  -5.7653314786257226e-01  -4.4369389426488393e-01  4.9397617391528349e-02  1.4491922199521948e-02  2.9383828727676292e-01  3.9712889951541797e-01  4.4283704802017060e-01  4.3469734555548833e-01  3.9609412739862082e-01  3.5476801252068474e-01  3.1847813036200884e-01  2.8396312660401596e-01  2.4956244272283482e-01  2.1545043693427132e-01  1.8184847086769346e-01  1.4864834893238599e-01  1.1577262642444099e-01  8.3137819216114739e-02  5.0651610363558371e-02  1.8228306438919147e-02  -1.4230491924020306e-02  -4.6890421851979926e-02  -7.9864084934011564e-02  -1.1328810940158240e-01  -1.4731813096237253e-01  -1.8211853766213165e-01  -2.1780348451569437e-01  -2.5458771363819860e-01  -2.9261615303000732e-01  -3.3290853180690461e-01  -3.7416712141002356e-01  -4.0653564521700142e-01  -4.6105601771342769e-01  -5.8375841772027737e-01  -5.0319476565042454e-01  3.5973254380097970e-02  2.3587103555178395e-03  2.7674937722199883e-01  3.9326102739649627e-01  4.4036015212279489e-01  4.3580408390314401e-01  3.9876788653321871e-01  3.5721790479459775e-01  3.2033264295266983e-01  2.8557892394899442e-01  2.5109078836451132e-01  2.1693245990782320e-01  1.8333304923814914e-01  1.5022663484750917e-01  1.1752607832365643e-01  8.5146341067670828e-02  5.2991322113883542e-02  2.0960132377421017e-02  -1.1101416453928705e-02  -4.3331343009159279e-02  -7.5839626218232786e-02  -1.0883831918095355e-01  -1.4247743217780548e-01  -1.7699005416521027e-01  -2.1248694915655147e-01  -2.4929244597576838e-01  -2.8753363142714156e-01  -3.2806497754416875e-01  -3.7106354705119571e-01  -4.0629063774125096e-01  -4.5050469739123838e-01  -5.8276716976419463e-01  -5.5035884128656898e-01  1.8965856509752244e-02  -7.7597059390162064e-03  2.4843249237213053e-01  3.8087370898013828e-01  4.3329000363827491e-01  4.3441336548324455e-01  4.0080058608787378e-01  3.5927184359070574e-01  3.2162964874962802e-01  2.8657633150779183e-01  2.5203451892168582e-01  2.1784761431529737e-01  1.8427142018338408e-01  1.5130315847053427e-01  1.1885287642691339e-01  8.6826206384504515e-02  5.5114832286223339e-02  2.3593697196923061e-02  -7.8861337764716093e-03  -3.9466343253252253e-02  -7.1324455591774374e-02  -1.0372988946250578e-01  -1.3677743173357959e-01  -1.7082479058434441e-01  -2.0591693105506220e-01  -2.4251491948026058e-01  -2.8068882808301870e-01  -3.2140548918545414e-01  -3.6510668075599001e-01  -4.0368852906742725e-01  -4.3947189651149215e-01  -5.7588774312511370e-01  -5.8727308290247127e-01  1.4213858897883427e-03  -1.3905787684227573e-02  2.1013574059535564e-01  3.5901029683860147e-01  4.2105317140173282e-01  4.2982660991584842e-01  4.0150019804259490e-01  3.6073773062834164e-01  3.2221759164231145e-01  2.8677076233555504e-01  2.5226325865624144e-01  2.1817050426102719e-01  1.8470879805504295e-01  1.5195871087466248e-01  1.1985172431730083e-01  8.8285924123891094e-02  5.7144471849126376e-02  2.6280290931721319e-02  -4.4503829305152206e-03  -3.5267929039935302e-02  -6.6337329537391118e-02  -9.7944303683994455e-02  -1.3014859737204892e-01  -1.6349628050273854e-01  -1.9788170866253149e-01  -2.3405450890957039e-01  -2.7183073864672647e-01  -3.1264848326976274e-01  -3.5618662317032856e-01  -3.9786244670133702e-01  -4.2703616261484856e-01  -5.6431111340569018e-01  -6.1614443608656999e-01  -1.4723692184410733e-02  -1.5278374225971822e-02  1.6453397055217070e-01  3.2664896360691642e-01  4.0290939619871485e-01  4.2152065206718092e-01  4.0074418351122254e-01  3.6201518722187370e-01  3.2258875967138795e-01  2.8635087420722805e-01  2.5169231133223563e-01  2.1767437855765148e-01  1.8435607347763916e-01  1.5186949908392736e-01  1.2019071868944842e-01  8.9202637787792763e-02  5.8785457478120723e-02  2.8740201959251352e-02  -1.0555488461475135e-03  -3.0904382445939137e-02  -6.0880759640200031e-02  -9.1413296580808323e-02  -1.2253330057226298e-01  -1.5493691621308461e-01  -1.8826983912753736e-01  -2.2372351787375497e-01  -2.6067931255382004e-01  -3.0144191394503228e-01  -3.4419473446262300e-01  -3.8812420680887294e-01  -4.1217362618886405e-01  -5.4849291416061730e-01  -6.3878167870027169e-01  -2.9156260340417850e-02  -1.2948577228086958e-02  1.1624996375942609e-01  2.8335625481147647e-01  3.7710874142373269e-01  4.0821928771326277e-01  3.9695846963137454e-01  3.6244791614626742e-01  3.2263523582990999e-01  2.8526688375016768e-01  2.5022220434532166e-01  2.1630528979249064e-01  1.8323682300318894e-01  1.5111168367554542e-01  1.1996874908067214e-01  8.9675827405377023e-02  6.0141628328411759e-02  3.1083932180455374e-02  2.4349732013344010e-03  -2.6223389022235595e-02  -5.4883885741692812e-02  -8.4171289543465033e-02  -1.1392966353555915e-01  -1.4501605471169049e-01  -1.7693489135328749e-01  -2.1136410057480615e-01  -2.4708366067398549e-01  -2.8743559198693353e-01  -3.2885354546591217e-01  -3.7382877047398705e-01  -3.9384671043069730e-01  -5.2797489541665155e-01  -6.5664424176232894e-01  -4.3517769545243765e-02  -9.7742477303914277e-03  7.1704683847603728e-02  2.3002371134490643e-01  3.4194034166872889e-01  3.8881008218477020e-01  3.8940615886106905e-01  3.6143207945610684e-01  3.2265407074502145e-01  2.8391766208136709e-01  2.4785538698539433e-01  2.1370442855957242e-01  1.8086929440510316e-01  1.4919204836783156e-01  1.1872864056685123e-01  8.9288306375007592e-02  6.0836638482045895e-02  3.2983330322717455e-02  5.7182047484277809e-03  -2.1501926854576824e-02  -4.8584984146565147e-02  -7.6278673039593070e-02  -1.0427029109187094e-01  -1.3368126270141881e-01  -1.6388255180580019e-01  -1.9680421960947514e-01  -2.3086771012314627e-01  -2.7031579878692530e-01  -3.0982823474734317e-01  -3.5416522142826928e-01  -3.7105213774353352e-01  -5.0153805869143031e-01  -6.7026771673992236e-01  -6.2278315260030519e-02  -8.2653900719617344e-03  3.7022664513934926e-02  1.7011040614197823e-01  2.9505255785242651e-01  3.6065323291320450e-01  3.7538238695180631e-01  3.5690256858007424e-01  3.2143491058492574e-01  2.8211512234556901e-01  2.4470845335732072e-01  2.0995579051023008e-01  1.7726684518606453e-01  1.4614730766283249e-01  1.1653780869329303e-01  8.8152360586502373e-02  6.0973300226073938e-02  3.4560908222023942e-02  8.8902770808189820e-03  -1.6595050103689286e-02  -4.1842935493538257e-02  -6.7575906327108110e-02  -9.3576215259376871e-02  -1.20