<?xml version="1.0"?>
<VTKFile type="UnstructuredGrid"  version="0.1"  >
<UnstructuredGrid>
<Piece  NumberOfPoints="25" NumberOfCells="16">
<Points>
<DataArray  type="Float64"  NumberOfComponents="3"  format="ascii">0 0 0  0.25 0 0  0.5 0 0  0.75 0 0  1 0 0  0 0.25 0  0.25 0.25 0  0.5 0.25 0  0.75 0.25 0  1 0.25 0  0 0.5 0  0.25 0.5 0  0.5 0.5 0  0.75 0.5 0  1 0.5 0  0 0.75 0  0.25 0.75 0  0.5 0.75 0  0.75 0.75 0  1 0.75 0  0 1 0  0.25 1 0  0.5 1 0  0.75 1 0  1 1 0  </DataArray>
</Points>
<Cells>
<DataArray  type="UInt32"  Name="connectivity"  format="ascii">0 1 6 5  1 2 7 6  2 3 8 7  3 4 9 8  5 6 11 10  6 7 12 11  7 8 13 12  8 9 14 13  10 11 16 15  11 12 17 16  12 13 18 17  13 14 19 18  15 16 21 20  16 17 22 21  17 18 23 22  18 19 24 23  </DataArray>
<DataArray  type="UInt32"  Name="offsets"  format="ascii">4 8 12 16 20 24 28 32 36 40 44 48 52 56 60 64 </DataArray>
<DataArray  type="UInt8"  Name="types"  format="ascii">9 9 9 9 9 9 9 9 9 9 9 9 9 9 9 9 </DataArray>
</Cells>
<PointData  Scalars="u_sol"> 
<DataArray  type="Float64"  Name="u_sol"  format="ascii">-4.5221941583552976e-04  2.3204068755543748e-03  6.0367675675793335e-03  4.1886683654141221e-03  -7.4262275652513688e-04  -1.8658275851469667e-03  9.5746022208783206e-03  2.4878959018772715e-02  1.7240473907980870e-02  -3.0574138573735703e-03  -1.5842658477997242e-07  6.1601486576589454e-07  2.1637906335225318e-06  7.2495170025903132e-07  -1.7535981163387462e-07  1.8659139996565065e-03  -9.5749382290705003e-03  -2.4880139268104250e-02  -1.7240869336075930e-02  3.0575095081501569e-03  4.5236344000769944e-04  -2.3209668891087279e-03  -6.0387346499231947e-03  -4.1893274123640479e-03  7.4278217452146346e-04  </DataArray> 
</PointData> 
</Piece>
</UnstructuredGrid>
</VTKFile>