<?xml version="1.0"?>
<VTKFile type="UnstructuredGrid"  version="0.1"  >
<UnstructuredGrid>
<Piece  NumberOfPoints="25" NumberOfCells="16">
<Points>
<DataArray  type="Float64"  NumberOfComponents="3"  format="ascii">0 0 0  0.25 0 0  0.5 0 0  0.75 0 0  1 0 0  0 0.25 0  0.25 0.25 0  0.5 0.25 0  0.75 0.25 0  1 0.25 0  0 0.5 0  0.25 0.5 0  0.5 0.5 0  0.75 0.5 0  1 0.5 0  0 0.75 0  0.25 0.75 0  0.5 0.75 0  0.75 0.75 0  1 0.75 0  0 1 0  0.25 1 0  0.5 1 0  0.75 1 0  1 1 0  </DataArray>
</Points>
<Cells>
<DataArray  type="UInt32"  Name="connectivity"  format="ascii">0 1 6 5  1 2 7 6  2 3 8 7  3 4 9 8  5 6 11 10  6 7 12 11  7 8 13 12  8 9 14 13  10 11 16 15  11 12 17 16  12 13 18 17  13 14 19 18  15 16 21 20  16 17 22 21  17 18 23 22  18 19 24 23  </DataArray>
<DataArray  type="UInt32"  Name="offsets"  format="ascii">4 8 12 16 20 24 28 32 36 40 44 48 52 56 60 64 </DataArray>
<DataArray  type="UInt8"  Name="types"  format="ascii">9 9 9 9 9 9 9 9 9 9 9 9 9 9 9 9 </DataArray>
</Cells>
<PointData  Scalars="v_sol"> 
<DataArray  type="Float64"  Name="v_sol"  format="ascii">2.5314611862932711e-04  2.1491762491470615e-03  9.1988492390271967e-04  -2.6509316615256698e-03  -1.0894051400433930e-03  -1.3546474837035827e-03  -1.1504901920814301e-02  -4.9271509034732085e-03  1.4192438773948239e-02  5.8338755761870031e-03  -2.6065771732736052e-03  -2.2124073861467877e-02  -9.4633504645634525e-03  2.7285901375621223e-02  1.1209623044416292e-02  -1.3543368652842490e-03  -1.1506763062251466e-02  -4.9272598401841929e-03  1.4194359335540720e-02  5.8336639912040938e-03  2.5309783599049865e-04  2.1494655457685056e-03  9.1990185704720760e-04  -2.6512301944182936e-03  -1.0893722511773336e-03  </DataArray> 
</PointData> 
</Piece>
</UnstructuredGrid>
</VTKFile>