<?xml version="1.0"?>
<VTKFile type="UnstructuredGrid"  version="0.1"  >
<UnstructuredGrid>
<Piece  NumberOfPoints="16641" NumberOfCells="16384">
<Points>
<DataArray  type="Float64"  NumberOfComponents="3"  format="ascii">0 0 0  0.0078125 0 0  0.015625 0 0  0.0234375 0 0  0.03125 0 0  0.0390625 0 0  0.046875 0 0  0.0546875 0 0  0.0625 0 0  0.0703125 0 0  0.078125 0 0  0.0859375 0 0  0.09375 0 0  0.1015625 0 0  0.109375 0 0  0.1171875 0 0  0.125 0 0  0.1328125 0 0  0.140625 0 0  0.1484375 0 0  0.15625 0 0  0.1640625 0 0  0.171875 0 0  0.1796875 0 0  0.1875 0 0  0.1953125 0 0  0.203125 0 0  0.2109375 0 0  0.21875 0 0  0.2265625 0 0  0.234375 0 0  0.2421875 0 0  0.25 0 0  0.2578125 0 0  0.265625 0 0  0.2734375 0 0  0.28125 0 0  0.2890625 0 0  0.296875 0 0  0.3046875 0 0  0.3125 0 0  0.3203125 0 0  0.328125 0 0  0.3359375 0 0  0.34375 0 0  0.3515625 0 0  0.359375 0 0  0.3671875 0 0  0.375 0 0  0.3828125 0 0  0.390625 0 0  0.3984375 0 0  0.40625 0 0  0.4140625 0 0  0.421875 0 0  0.4296875 0 0  0.4375 0 0  0.4453125 0 0  0.453125 0 0  0.4609375 0 0  0.46875 0 0  0.4765625 0 0  0.484375 0 0  0.4921875 0 0  0.5 0 0  0.5078125 0 0  0.515625 0 0  0.5234375 0 0  0.53125 0 0  0.5390625 0 0  0.546875 0 0  0.5546875 0 0  0.5625 0 0  0.5703125 0 0  0.578125 0 0  0.5859375 0 0  0.59375 0 0  0.6015625 0 0  0.609375 0 0  0.6171875 0 0  0.625 0 0  0.6328125 0 0  0.640625 0 0  0.6484375 0 0  0.65625 0 0  0.6640625 0 0  0.671875 0 0  0.6796875 0 0  0.6875 0 0  0.6953125 0 0  0.703125 0 0  0.7109375 0 0  0.71875 0 0  0.7265625 0 0  0.734375 0 0  0.7421875 0 0  0.75 0 0  0.7578125 0 0  0.765625 0 0  0.7734375 0 0  0.78125 0 0  0.7890625 0 0  0.796875 0 0  0.8046875 0 0  0.8125 0 0  0.8203125 0 0  0.828125 0 0  0.8359375 0 0  0.84375 0 0  0.8515625 0 0  0.859375 0 0  0.8671875 0 0  0.875 0 0  0.8828125 0 0  0.890625 0 0  0.8984375 0 0  0.90625 0 0  0.9140625 0 0  0.921875 0 0  0.9296875 0 0  0.9375 0 0  0.9453125 0 0  0.953125 0 0  0.9609375 0 0  0.96875 0 0  0.9765625 0 0  0.984375 0 0  0.9921875 0 0  1 0 0  0 0.0078125 0  0.0078125 0.0078125 0  0.015625 0.0078125 0  0.0234375 0.0078125 0  0.03125 0.0078125 0  0.0390625 0.0078125 0  0.046875 0.0078125 0  0.0546875 0.0078125 0  0.0625 0.0078125 0  0.0703125 0.0078125 0  0.078125 0.0078125 0  0.0859375 0.0078125 0  0.09375 0.0078125 0  0.1015625 0.0078125 0  0.109375 0.0078125 0  0.1171875 0.0078125 0  0.125 0.0078125 0  0.1328125 0.0078125 0  0.140625 0.0078125 0  0.1484375 0.0078125 0  0.15625 0.0078125 0  0.1640625 0.0078125 0  0.171875 0.0078125 0  0.1796875 0.0078125 0  0.1875 0.0078125 0  0.1953125 0.0078125 0  0.203125 0.0078125 0  0.2109375 0.0078125 0  0.21875 0.0078125 0  0.2265625 0.0078125 0  0.234375 0.0078125 0  0.2421875 0.0078125 0  0.25 0.0078125 0  0.2578125 0.0078125 0  0.265625 0.0078125 0  0.2734375 0.0078125 0  0.28125 0.0078125 0  0.2890625 0.0078125 0  0.296875 0.0078125 0  0.3046875 0.0078125 0  0.3125 0.0078125 0  0.3203125 0.0078125 0  0.328125 0.0078125 0  0.3359375 0.0078125 0  0.34375 0.0078125 0  0.3515625 0.0078125 0  0.359375 0.0078125 0  0.3671875 0.0078125 0  0.375 0.0078125 0  0.3828125 0.0078125 0  0.390625 0.0078125 0  0.3984375 0.0078125 0  0.40625 0.0078125 0  0.4140625 0.0078125 0  0.421875 0.0078125 0  0.4296875 0.0078125 0  0.4375 0.0078125 0  0.4453125 0.0078125 0  0.453125 0.0078125 0  0.4609375 0.0078125 0  0.46875 0.0078125 0  0.4765625 0.0078125 0  0.484375 0.0078125 0  0.4921875 0.0078125 0  0.5 0.0078125 0  0.5078125 0.0078125 0  0.515625 0.0078125 0  0.5234375 0.0078125 0  0.53125 0.0078125 0  0.5390625 0.0078125 0  0.546875 0.0078125 0  0.5546875 0.0078125 0  0.5625 0.0078125 0  0.5703125 0.0078125 0  0.578125 0.0078125 0  0.5859375 0.0078125 0  0.59375 0.0078125 0  0.6015625 0.0078125 0  0.609375 0.0078125 0  0.6171875 0.0078125 0  0.625 0.0078125 0  0.6328125 0.0078125 0  0.640625 0.0078125 0  0.6484375 0.0078125 0  0.65625 0.0078125 0  0.6640625 0.0078125 0  0.671875 0.0078125 0  0.6796875 0.0078125 0  0.6875 0.0078125 0  0.6953125 0.0078125 0  0.703125 0.0078125 0  0.7109375 0.0078125 0  0.71875 0.0078125 0  0.7265625 0.0078125 0  0.734375 0.0078125 0  0.7421875 0.0078125 0  0.75 0.0078125 0  0.7578125 0.0078125 0  0.765625 0.0078125 0  0.7734375 0.0078125 0  0.78125 0.0078125 0  0.7890625 0.0078125 0  0.796875 0.0078125 0  0.8046875 0.0078125 0  0.8125 0.0078125 0  0.8203125 0.0078125 0  0.828125 0.0078125 0  0.8359375 0.0078125 0  0.84375 0.0078125 0  0.8515625 0.0078125 0  0.859375 0.0078125 0  0.8671875 0.0078125 0  0.875 0.0078125 0  0.8828125 0.0078125 0  0.890625 0.0078125 0  0.8984375 0.0078125 0  0.90625 0.0078125 0  0.9140625 0.0078125 0  0.921875 0.0078125 0  0.9296875 0.0078125 0  0.9375 0.0078125 0  0.9453125 0.0078125 0  0.953125 0.0078125 0  0.9609375 0.0078125 0  0.96875 0.0078125 0  0.9765625 0.0078125 0  0.984375 0.0078125 0  0.9921875 0.0078125 0  1 0.0078125 0  0 0.015625 0  0.0078125 0.015625 0  0.015625 0.015625 0  0.0234375 0.015625 0  0.03125 0.015625 0  0.0390625 0.015625 0  0.046875 0.015625 0  0.0546875 0.015625 0  0.0625 0.015625 0  0.0703125 0.015625 0  0.078125 0.015625 0  0.0859375 0.015625 0  0.09375 0.015625 0  0.1015625 0.015625 0  0.109375 0.015625 0  0.1171875 0.015625 0  0.125 0.015625 0  0.1328125 0.015625 0  0.140625 0.015625 0  0.1484375 0.015625 0  0.15625 0.015625 0  0.1640625 0.015625 0  0.171875 0.015625 0  0.1796875 0.015625 0  0.1875 0.015625 0  0.1953125 0.015625 0  0.203125 0.015625 0  0.2109375 0.015625 0  0.21875 0.015625 0  0.2265625 0.015625 0  0.234375 0.015625 0  0.2421875 0.015625 0  0.25 0.015625 0  0.2578125 0.015625 0  0.265625 0.015625 0  0.2734375 0.015625 0  0.28125 0.015625 0  0.2890625 0.015625 0  0.296875 0.015625 0  0.3046875 0.015625 0  0.3125 0.015625 0  0.3203125 0.015625 0  0.328125 0.015625 0  0.3359375 0.015625 0  0.34375 0.015625 0  0.3515625 0.015625 0  0.359375 0.015625 0  0.3671875 0.015625 0  0.375 0.015625 0  0.3828125 0.015625 0  0.390625 0.015625 0  0.3984375 0.015625 0  0.40625 0.015625 0  0.4140625 0.015625 0  0.421875 0.015625 0  0.4296875 0.015625 0  0.4375 0.015625 0  0.4453125 0.015625 0  0.453125 0.015625 0  0.4609375 0.015625 0  0.46875 0.015625 0  0.4765625 0.015625 0  0.484375 0.015625 0  0.4921875 0.015625 0  0.5 0.015625 0  0.5078125 0.015625 0  0.515625 0.015625 0  0.5234375 0.015625 0  0.53125 0.015625 0  0.5390625 0.015625 0  0.546875 0.015625 0  0.5546875 0.015625 0  0.5625 0.015625 0  0.5703125 0.015625 0  0.578125 0.015625 0  0.5859375 0.015625 0  0.59375 0.015625 0  0.6015625 0.015625 0  0.609375 0.015625 0  0.6171875 0.015625 0  0.625 0.015625 0  0.6328125 0.015625 0  0.640625 0.015625 0  0.6484375 0.015625 0  0.65625 0.015625 0  0.6640625 0.015625 0  0.671875 0.015625 0  0.6796875 0.015625 0  0.6875 0.015625 0  0.6953125 0.015625 0  0.703125 0.015625 0  0.7109375 0.015625 0  0.71875 0.015625 0  0.7265625 0.015625 0  0.734375 0.015625 0  0.7421875 0.015625 0  0.75 0.015625 0  0.7578125 0.015625 0  0.765625 0.015625 0  0.7734375 0.015625 0  0.78125 0.015625 0  0.7890625 0.015625 0  0.796875 0.015625 0  0.8046875 0.015625 0  0.8125 0.015625 0  0.8203125 0.015625 0  0.828125 0.015625 0  0.8359375 0.015625 0  0.84375 0.015625 0  0.8515625 0.015625 0  0.859375 0.015625 0  0.8671875 0.015625 0  0.875 0.015625 0  0.8828125 0.015625 0  0.890625 0.015625 0  0.8984375 0.015625 0  0.90625 0.015625 0  0.9140625 0.015625 0  0.921875 0.015625 0  0.9296875 0.015625 0  0.9375 0.015625 0  0.9453125 0.015625 0  0.953125 0.015625 0  0.9609375 0.015625 0  0.96875 0.015625 0  0.9765625 0.015625 0  0.984375 0.015625 0  0.9921875 0.015625 0  1 0.015625 0  0 0.0234375 0  0.0078125 0.0234375 0  0.015625 0.0234375 0  0.0234375 0.0234375 0  0.03125 0.0234375 0  0.0390625 0.0234375 0  0.046875 0.0234375 0  0.0546875 0.0234375 0  0.0625 0.0234375 0  0.0703125 0.0234375 0  0.078125 0.0234375 0  0.0859375 0.0234375 0  0.09375 0.0234375 0  0.1015625 0.0234375 0  0.109375 0.0234375 0  0.1171875 0.0234375 0  0.125 0.0234375 0  0.1328125 0.0234375 0  0.140625 0.0234375 0  0.1484375 0.0234375 0  0.15625 0.0234375 0  0.1640625 0.0234375 0  0.171875 0.0234375 0  0.1796875 0.0234375 0  0.1875 0.0234375 0  0.1953125 0.0234375 0  0.203125 0.0234375 0  0.2109375 0.0234375 0  0.21875 0.0234375 0  0.2265625 0.0234375 0  0.234375 0.0234375 0  0.2421875 0.0234375 0  0.25 0.0234375 0  0.2578125 0.0234375 0  0.265625 0.0234375 0  0.2734375 0.0234375 0  0.28125 0.0234375 0  0.2890625 0.0234375 0  0.296875 0.0234375 0  0.3046875 0.0234375 0  0.3125 0.0234375 0  0.3203125 0.0234375 0  0.328125 0.0234375 0  0.3359375 0.0234375 0  0.34375 0.0234375 0  0.3515625 0.0234375 0  0.359375 0.0234375 0  0.3671875 0.0234375 0  0.375 0.0234375 0  0.3828125 0.0234375 0  0.390625 0.0234375 0  0.3984375 0.0234375 0  0.40625 0.0234375 0  0.4140625 0.0234375 0  0.421875 0.0234375 0  0.4296875 0.0234375 0  0.4375 0.0234375 0  0.4453125 0.0234375 0  0.453125 0.0234375 0  0.4609375 0.0234375 0  0.46875 0.0234375 0  0.4765625 0.0234375 0  0.484375 0.0234375 0  0.4921875 0.0234375 0  0.5 0.0234375 0  0.5078125 0.0234375 0  0.515625 0.0234375 0  0.5234375 0.0234375 0  0.53125 0.0234375 0  0.5390625 0.0234375 0  0.546875 0.0234375 0  0.5546875 0.0234375 0  0.5625 0.0234375 0  0.5703125 0.0234375 0  0.578125 0.0234375 0  0.5859375 0.0234375 0  0.59375 0.0234375 0  0.6015625 0.0234375 0  0.609375 0.0234375 0  0.6171875 0.0234375 0  0.625 0.0234375 0  0.6328125 0.0234375 0  0.640625 0.0234375 0  0.6484375 0.0234375 0  0.65625 0.0234375 0  0.6640625 0.0234375 0  0.671875 0.0234375 0  0.6796875 0.0234375 0  0.6875 0.0234375 0  0.6953125 0.0234375 0  0.703125 0.0234375 0  0.7109375 0.0234375 0  0.71875 0.0234375 0  0.7265625 0.0234375 0  0.734375 0.0234375 0  0.7421875 0.0234375 0  0.75 0.0234375 0  0.7578125 0.0234375 0  0.765625 0.0234375 0  0.7734375 0.0234375 0  0.78125 0.0234375 0  0.7890625 0.0234375 0  0.796875 0.0234375 0  0.8046875 0.0234375 0  0.8125 0.0234375 0  0.8203125 0.0234375 0  0.828125 0.0234375 0  0.8359375 0.0234375 0  0.84375 0.0234375 0  0.8515625 0.0234375 0  0.859375 0.0234375 0  0.8671
[...]
<PointData  Scalars="u_sol"> 
<DataArray  type="Float64"  Name="u_sol"  format="ascii">9.7000465142113659e-07  -2.1120076103323073e-06  -1.2851594107557215e-05  -2.2150457978501676e-05  -2.7778803328710336e-05  -2.8892791522638222e-05  -2.5361556540957891e-05  -1.7380261301977624e-05  -5.6585157012731709e-06  8.7198691083019286e-06  2.4406733320498072e-05  4.0042708487475725e-05  5.4469898638833034e-05  6.6906964283681034e-05  7.7018149224580907e-05  8.4895663355221264e-05  9.0973263462156928e-05  9.5912836152504710e-05  1.0049307004591117e-04  1.0552238507563019e-04  1.1178182048889156e-04  1.1999252463339596e-04  1.3079856975295445e-04  1.4475903946296553e-04  1.6234556063020767e-04  1.8394555980694345e-04  2.0988403449753739e-04  2.4048016985573066e-04  2.7613911348841469e-04  3.1744909416055590e-04  3.6525939039405979e-04  4.2074158022841531e-04  4.8543677127193375e-04  5.6115824996050539e-04  6.4984483882556457e-04  7.5338334142305871e-04  8.7374742942684762e-04  1.0129437524045595e-03  1.1730105651537983e-03  1.3556213168581953e-03  1.5615834319690886e-03  1.7908839656127062e-03  2.0418094756280646e-03  2.3117096524676488e-03  2.5967459623213460e-03  2.8902392000950904e-03  3.1828455341303056e-03  3.4615878354188790e-03  3.7091340689385560e-03  3.9043571561603965e-03  4.0234888667893664e-03  4.0422138881245316e-03  3.9381454316409969e-03  3.6932901980483370e-03  3.2959688751642720e-03  2.7419558719280431e-03  2.0348082806588919e-03  1.1855251947970324e-03  2.1182122182963878e-04  -8.6284498982864882e-04  -2.0101431142056482e-03  -3.1979160604334194e-03  -4.3911595467033132e-03  -5.5532256147700519e-03  -6.6562885367546275e-03  -7.6649012233824662e-03  -8.5166528011789058e-03  -9.1531462160562033e-03  -9.5294911464874760e-03  -9.6057159560663675e-03  -9.3514100150795809e-03  -8.7471640354724149e-03  -7.7881552305760805e-03  -6.4864011985744791e-03  -4.8729446535614659e-03  -2.9985608478656210e-03  -9.3308625631000845e-04  1.2373417801981724e-03  3.4150456201478370e-03  5.4975753593043833e-03  7.3857152605011503e-03  8.9920626514603513e-03  1.0248698011283149e-02  1.1113292390674335e-02  1.1571779036431386e-02  1.1638708013211256e-02  1.1352413318134465e-02  1.0770557136839339e-02  9.9591562854728019e-03  8.9897251682469759e-03  7.9362057954371450e-03  6.8476525179497309e-03  5.7509261791492960e-03  4.6661864577660986e-03  3.6151907322331998e-03  2.6269144494423685e-03  1.7260068038814510e-03  9.3520004629400917e-04  2.7996523728446055e-04  -2.2073723069112697e-04  -5.6161348848928882e-04  -7.5433488029877122e-04  -8.2576419915201442e-04  -8.1041594681665035e-04  -7.4200243856942889e-04  -6.4777042050303993e-04  -5.4700997441252885e-04  -4.5151471408354596e-04  -3.6706592804635198e-04  -2.9563955840360005e-04  -2.3710026200530085e-04  -1.9029008461410063e-04  -1.5365255861969496e-04  -1.2559828831557382e-04  -1.0457628061615927e-04  -8.9080082298506708e-05  -7.7654815460571734e-05  -6.8924840731795725e-05  -6.1638761015516563e-05  -5.4721659005179745e-05  -4.7337117782392635e-05  -3.8947109786749622e-05  -2.9379105464532348e-05  -1.8876344162007494e-05  -8.1430129109138895e-06  1.4984208890760197e-06  8.1374985405716420e-06  7.3645903511840171e-06  -8.3551744709866881e-07  6.1177746280018160e-06  -3.2784170533185097e-05  -9.0038265805769194e-05  -1.0604530005136410e-04  -4.6459031691271505e-05  1.0653214620842204e-04  3.5701344519275646e-04  6.9791118639544721e-04  1.1131174971197287e-03  1.5800893407523988e-03  2.0731100507039072e-03  2.5667308317053653e-03  3.0389147400897189e-03  3.4733506786928056e-03  3.8606830718908537e-03  4.1986188992111980e-03  4.4911085478539121e-03  4.7469125880761458e-03  4.9778953029446160e-03  5.1973219436698484e-03  5.4183391622282607e-03  5.6527193924037385e-03  5.9098772044402312e-03  6.1961349064023402e-03  6.5142298735245303e-03  6.8630912240449492e-03  7.2379231986776926e-03  7.6306044045819730e-03  8.0303382037481101e-03  8.4243817149661487e-03  8.7985310350648018e-03  9.1369503653420409e-03  9.4211274019547001e-03  9.6282870649535366e-03  9.7295874653716332e-03  9.6885921775050864e-03  9.4599486535555510e-03  8.9889133356241876e-03  8.2111704213962307e-03  7.0535522986261978e-03  5.4354746074136151e-03  3.2702054676420579e-03  4.6824352010854241e-04  -3.0585611106926439e-03  -7.3907507581462643e-03  -1.2594325869330741e-02  -1.8715022632069988e-02  -2.5770456103037010e-02  -3.3742314730325955e-02  -4.2571114670417617e-02  -5.2154845612192767e-02  -6.2352383250388339e-02  -7.2990693698838746e-02  -8.3874382482877305e-02  -9.4795818776885893e-02  -1.0554445154713983e-01  -1.1591439442575856e-01  -1.2570988116833734e-01  -1.3474864925018271e-01  -1.4286350586517255e-01  -1.4990265293989785e-01  -1.5572906680216295e-01  -1.6021955995801504e-01  -1.6326418945614393e-01  -1.6475802269495982e-01  -1.6461487038838210e-01  -1.6278273124221521e-01  -1.5922132640523484e-01  -1.5390241885996805e-01  -1.4682170517140800e-01  -1.3800080726949815e-01  -1.2749386702596069e-01  -1.1539158305892432e-01  -1.0182638162809515e-01  -8.6975382661753406e-02  -7.1061953129443939e-02  -5.4354078876160998e-02  -3.7159513247091484e-02  -1.9816994386369385e-02  -2.6838903037532842e-03  1.3879268522109701e-02  2.9525970192340819e-02  4.3941305479746950e-02  5.6857624487130567e-02  6.8067461828574261e-02  7.7430707952855601e-02  8.4877831947221385e-02  9.0404697047709856e-02  9.4065937847789563e-02  9.5957881868292641e-02  9.6198478273258572e-02  9.4927266139625294e-02  9.2288718324047073e-02  8.8416474747508397e-02  8.3425446416529547e-02  7.7411668623671576e-02  7.0484914214269404e-02  6.2795574823223815e-02  5.4551688521028437e-02  4.6034651306894013e-02  3.7589660141277743e-02  2.9585789001201797e-02  2.2355870422906404e-02  1.6137288584670024e-02  1.1039117936855945e-02  7.0457692384317365e-03  4.0487359099775060e-03  1.8881926580953964e-03  3.9004154280352179e-04  -6.0847444515206768e-04  -1.2456837789062301e-03  -1.6317607218942858e-03  -1.8500023472503048e-03  -1.9599739637832319e-03  -2.0013375606375292e-03  -1.9977805018646638e-03  -1.9609089607830563e-03  -1.8940131042991615e-03  -1.7955710267504518e-03  -1.6623808525582284e-03  -1.4922378440379114e-03  -1.2861222010524867e-03  -1.0498173865175966e-03  -7.9496372484008030e-04  -5.3933110524293057e-04  -3.0661606354912674e-04  -1.2413502721659165e-04  -1.9655657435765398e-05  4.4333254457491628e-06  5.8068435603002686e-06  -3.1309048645789851e-05  -6.4438151349612688e-05  -1.8423116290469438e-05  1.5070492340366878e-04  4.6710172060770180e-04  9.3438601018657798e-04  1.5391349075890581e-03  2.2543520636075318e-03  3.0440828882077873e-03  3.8685011299341180e-03  4.6889865380401029e-03  5.4724701749421008e-03  6.1945359061019662e-03  6.8409895709954857e-03  7.4079197734201793e-03  7.9005033411513881e-03  8.3309441036602712e-03  8.7159620588273309e-03  9.0742003576334430e-03  9.4238114391799119e-03  9.7803638674126715e-03  1.0155121701484500e-02  1.0553704992024914e-02  1.0975127402064175e-02  1.1411219471320400e-02  1.1846473167277891e-02  1.2258311999428726e-02  1.2617640621544482e-02  1.2889268197288741e-02  1.3031747368969272e-02  1.2996390206332382e-02  1.2725316653166927e-02  1.2148427053401552e-02  1.1180311808756838e-02  9.7181875091064737e-03  7.6420149707937856e-03  4.8159720822696832e-03  1.0916716702437811e-03  -3.6865835879932377e-03  -9.6731833608840849e-03  -1.7008780286676482e-02  -2.5806581794687530e-02  -3.6135609797191687e-02  -4.8002780995073595e-02  -6.1336901170396252e-02  -7.5979719974071963e-02  -9.1689988381693316e-02  -1.0815969443590388e-01  -1.2503875047721502e-01  -1.4196257207334684e-01  -1.5857738360303777e-01  -1.7456005091827437e-01  -1.8963095399604424e-01  -2.0356006721631517e-01  -2.1616735036134363e-01  -2.2731905546309952e-01  -2.3692156827022717e-01  -2.4491416970918406e-01  -2.5126176720318499e-01  -2.5594823627183916e-01  -2.5897077894487813e-01  -2.6033543894253136e-01  -2.6005305901553316e-01  -2.5814270753422625e-01  -2.5461996910297563e-01  -2.4948640534303379e-01  -2.4274884324448517e-01  -2.3442061701767836e-01  -2.2452000911779335e-01  -2.1307682723041624e-01  -2.0013530589762471e-01  -1.8576060069036784e-01  -1.7004328470172023e-01  -1.5310484287681114e-01  -1.3510111951030632e-01  -1.1622438518926806e-01  -9.6702267766066941e-02  -7.6793546935984891e-02  -5.6780272923864762e-02  -3.6956851656034399e-02  -1.7616984261092573e-02  9.5979962962973973e-04  1.8520557871007971e-02  3.4848211724130766e-02  4.9767742058669302e-02  6.3147216645545540e-02  7.4897065077764211e-02  8.4963663265402098e-02  9.3324839742379137e-02  9.9983763485715665e-02  1.0494874257128571e-01  1.0822496733020724e-01  1.0980250567697258e-01  1.0965651858143929e-01  1.0776097714405100e-01  1.0407746534944576e-01  9.8571736499550103e-02  9.1267850953651447e-02  8.2304286010278643e-02  7.1987386464664391e-02  6.0815391414569500e-02  4.9439738982700376e-02  3.8557550984131148e-02  2.8768483937112642e-02  2.0459823780952974e-02  1.3768946480378592e-02  8.6234246397727619e-03  4.8203851169024937e-03  2.1043916039355189e-03  2.2243482879988740e-04  -1.0461659653410796e-03  -1.8785505608098249e-03  -2.4081402912972845e-03  -2.7294423121955974e-03  -2.9048605497119019e-03  -2.9720712539412085e-03  -2.9511904477343559e-03  -2.8513297695536939e-03  -2.6763053087124735e-03  -2.4293931581075216e-03  -2.1170759069262359e-03  -1.7517533482299492e-03  -1.3533366821519431e-03  -9.4964793508504506e-04  -5.7522382114760242e-04  -2.6824867772482034e-04  -6.3342739529466586e-05  1.2417490067305829e-05  2.4156108059687130e-06  -1.3366404807030489e-05  1.0740170264050879e-05  1.5176845933519021e-04  4.5525945793476971e-04  9.4353797954264192e-04  1.6150084334230575e-03  2.4477167621670013e-03  3.4040431766719230e-03  4.4368753858562019e-03  5.4962069057293570e-03  6.5353072833498572e-03  7.5156294387335757e-03  8.4099331290136744e-03  9.2034932921359371e-03  9.8935720348210000e-03  1.0487543492092910e-02  1.1000152265851448e-02  1.1450363985944586e-02  1.1858172308326049e-02  1.2241608249585621e-02  1.2614093389500685e-02  1.2982186583878017e-02  1.3343717355676134e-02  1.3686311974011867e-02  1.3986359946816634e-02  1.4208424997756833e-02  1.4304960770162769e-02  1.4216108217016528e-02  1.3869328498870384e-02  1.3178199896551697e-02  1.2039618551211557e-02  1.0329941572237112e-02  7.9019716753731921e-03  4.5838685211312550e-03  1.8102237795278431e-04  -5.5181412096492934e-03  -1.2730511154868097e-02  -2.1661355728646928e-02  -3.2482494733919509e-02  -4.5305153820207944e-02  -6.0148868672790512e-02  -7.6912290261537355e-02  -9.5358819061327191e-02  -1.1512504032599967e-01  -1.3575194841312913e-01  -1.5673162653015887e-01  -1.7755799455862240e-01  -1.9777140676497820e-01  -2.1698985723170430e-01  -2.3492439671150434e-01  -2.5138014868603747e-01  -2.6624659271294882e-01  -2.7948155325101665e-01  -2.9109287976502135e-01  -3.0112079828606686e-01  -3.0962271866297464e-01  -3.1666127266325567e-01  -3.2229561981010019e-01  -3.2657563026942560e-01  -3.2953838097981314e-01  -3.3120637555392923e-01  -3.3158692363625836e-01  -3.3067288787677629e-01  -3.2843837290523170e-01  -3.2484943445621489e-01  -3.1987755650869398e-01  -3.1348783649609380e-01  -3.0564130770139658e-01  -2.9630185839610063e-01  -2.8543893840444329e-01  -2.7303487212237015e-01  -2.5909063087709699e-01  -2.4363433312273333e-01  -2.2672883076553282e-01  -2.0847973151059110e-01  -1.8904120476269815e-01  -1.6861911286195419e-01  -1.4746933498628834e-01  -1.2589055280886086e-01  -1.0421084191485890e-01  -8.2769016496061498e-02  -6.1892702328580157e-02  -4.1876360158587658e-02  -2.2962737529846441e-02  -5.3311310926893894e-03  1.0906526395829088e-02  2.5700110779540448e-02  3.9051096952696249e-02  5.0994452437963272e-02  6.1581602086623499e-02  7.0871812702027623e-02  7.8911051508640556e-02  8.5720081757606051e-02  9.1269180117872981e-02  9.5445256549385585e-02  9.8071481715127709e-02  9.8921431266300638e-02  9.7725786937684855e-02  9.4231725698699018e-02  8.8300708064721706e-02  8.0022622131447105e-02  6.9807673209369259e-02  5.8390742100860885e-02  4.6708516113232415e-02  3.5680083369597028e-02  2.5993156788125391e-02  1.7997400592224128e-02  1.1729273747764514e-02  7.0152429677041855e-03  3.5846136939773799e-03  1.1520599885378505e-03  -5.3675046780037429e-04  -1.6867971650896974e-03  -2.4515876526027768e-03  -2.9389837669882624e-03  -3.2201384037108078e-03  -3.3391131021218174e-03  -3.3219096372787416e-03  -3.1843365660629520e-03  -2.9384900242637709e-03  -2.5978055643659970e-03  -2.1807013311688052e-03  -1.7127741950409411e-03  -1.2275564929999268e-03  -7.6545661330570166e-04  -3.7177027815699912e-04  -9.2248073842405364e-05  1.8155667828846719e-05  -2.0823694570198513e-06  9.5136770684381959e-06  1.0807304968568606e-04  3.6550114370800514e-04  8.2359168448188007e-04  1.4978970025211306e-03  2.3769569390017331e-03  3.4264546650510565e-03  4.5954469106241208e-03  5.8244053227704679e-03  7.0535475291582704e-03  8.2301131764196938e-03  9.3135405446903626e-03  1.0278085370006062e-02  1.1112950034259970e-02  1.1820428351142064e-02  1.2412743280771436e-02  1.2908219054719625e-02  1.3327284260794823e-02  1.3688633900518929e-02  1.4005728797119102e-02  1.4283679699944606e-02  1.4516509611714037e-02  1.4684798394816252e-02  1.4753697930309428e-02  1.4671256308886200e-02  1.4367093297344754e-02  1.3751497988427813e-02  1.2714397824727689e-02  1.1123208934123588e-02  8.8196332079481590e-03  5.6164398750998728e-03  1.2952329945249894e-03  -4.3923356920168898e-03  -1.1715588905389084e-02  -2.0946400426729309e-02  -3.2332274294209588e-02  -4.6061692938611759e-02  -6.2221090302469889e-02  -8.0749203897942406e-02  -1.0140462983135536e-01  -1.2376367984756349e-01  -1.4725640786220778e-01  -1.7123325106536924e-01  -1.9504461358939590e-01  -2.1811323227401894e-01  -2.3998428218901224e-01  -2.6034714641184303e-01  -2.7903109580966839e-01  -2.9598253471367364e-01  -3.1123306436709591e-01  -3.2486651967106323e-01  -3.3699052567675919e-01  -3.4771528822753006e-01  -3.5714002359146158e-01  -3.6534596550818310e-01  -3.7239423678434236e-01  -3.7832681254969786e-01  -3.8316908677816586e-01  -3.8693296021758816e-01  -3.8961976135422821e-01  -3.9122262573423155e-01  -3.9172824268283418e-01  -3.9111755366167750e-01  -3.8937045843732765e-01  -3.8646011768178767e-01  -3.8234386627688538e-01  -3.7697189177426904e-01  -3.7028812585847926e-01  -3.6222957395605604e-01  -3.5272999496327617e-01  -3.4172270089052581e-01  -3.2914698241161233e-01  -3.1495537877860119e-01  -2.9912416363989702e-01  -2.8166514172888518e-01  -2.6263900703090981e-01  -2.4216784042391432e-01  -2.2044491779108327e-01  -1.9773860435336885e-01  -1.7438784402971361e-01  -1.5078729652827361e-01  -1.2736230675281587e-01  -1.0453612084839711e-01  -8.2694171145549056e-02  -6.2151473042206681e-02  -4.3129197783650507e-02  -2.5744000104080973e-02  -1.0012413854659624e-02  4.1347952246125830e-03  1.6827782371344694e-02  2.8226510781041804e-02  3.8497976574315869e-02  4.7785430191739260e-02  5.6195345003320248e-02  6.3790784792901664e-02  7.0531941742291562e-02  7.6243044879260924e-02  8.0625099580083945e-02  8.3262656972876298e-02  8.3674407597455772e-02  8.1434122395408509e-02  7.6341628643560921e-02  6.8591459241265071e-02  5.8841024677889063e-02  4.8099713340432448e-02  3.7460663566247360e-02  2.7810139715423787e-02  1.9661420833080520e-02  1.3158903153514711e-02  8.1892220330301146e-03  4.5111475464006704e-03  1.8528583881411954e-03  -3.3348385588378806e-05  -1.3483857451016825e-03  -2.2427073143125973e-03  -2.8221351119239540e-03  -3.1573717726812263e-03  -3.2941468409455939e-03  -3.2625055597708852e-03  -3.0846382653646949e-03  -2.7810855848653233e-03  -2.3753479163009911e-03  -1.8969287800766027e-03  -1.3829229696886744e-03  -8.7801300837231616e-04  -4.3429060402410980e-04  -1.0939143665877559e-04  2.1578887589559850e-05  -6.9576297809871577e-06  3.3927423280261301e-05  2.1681215536163717e-04  6.0848906909620525e-04  1.2436224143806472e-03  2.1265302309764469e-03  3.2305088171025124e-03  4.5033050148368774e-03  5.8757455850239537e-03  7.2725372011734467e-03  8.6229284711818368e-03  9.8692693855235072e-03  1.0972149055249292e-02  1.1911765273001090e-02  1.2686086173727466e-02  1.3306800887544962e-02  1.3794127406245088e-02  1.4171331811811298e-02  1.4459501227695966e-02  1.4672816973740519e-02  1.4814370019630849e-02  1.4872502161850886e-02  1.4817598305824187e-02  1.4599179898260459e-02  1.4143303485349975e-02  1.3350492303338379e-02  1.2093976985153227e-02  1.0217656056992522e-02  7.5339019002571977e-03  3.8213325142335028e-03  -1.1776013374547878e-03  -7.7561642777089585e-03  -1.6233718152273119e-02  -2.6932755359793836e-02  -4.0142060284718478e-02  -5.6066682139172611e-02  -7.4768104768754146e-02  -9.6106301376311529e-02  -1.1970633319767662e-01  -1.4497209675462622e-01  -1.7115326772989489e-01  -1.9744911367878840e-01  -2.2311839633078545e-01  -2.4756553498339393e-01  -2.7038534114861107e-01  -2.9136437377106128e-01  -3.1044945646089461e-01  -3.2769948515267694e-01  -3.4323574573399435e-01  -3.5720117039670085e-01  -3.6973309755499234e-01  -3.8094929936481697e-01  -3.9094422386322908e-01  -3.9979148491308569e-01  -4.0754904967710415e-01  -4.1426461184849189e-01  -4.1997976056717568e-01  -4.2473244778041147e-01  -4.2855782694583688e-01  -4.3148781493665672e-01  -4.3354980400697724e-01  -4.3476491684760371e-01  -4.3514607916163722e-01  -4.3469639233864393e-01  -4.3340478140080707e-01  -4.3124813695254377e-01  -4.2819577871691850e-01  -4.2420334710786717e-01  -4.1921124872930854e-01  -4.1314448455551328e-01  -4.0591139051079106e-01  -3.9740469345339985e-01  -3.8750333054506420e-01  -3.7607759811294605e-01  -3.6299718732597092e-01  -3.4814385006260318e-01  -3.3142826912713591e-01  -3.1281111214493174e-01  -2.9232606197204197e-01  -2.7010174875382292e-01  -2.4637767437669733e-01  -2.2150894636351476e-01  -1.9595520469475872e-01  -1.7025181645499385e-01  -1.4496525148332604e-01  -1.2063894783713847e-01  -9.7739046709815258e-02  -7.6610310534774517e-02  -5.7450080955625815e-02  -4.0305089272367575e-02  -2.5087699014867636e-02  -1.1606895389651291e-02  3.9057737619359713e-04  1.1184307261368990e-02  2.1035831183565522e-02  3.0147494668965342e-02  3.8662665656772087e-02  4.6635164311063598e-02  5.3967581162205361e-02  6.0392747464035883e-02  6.5471363922416412e-02  6.8626144118516225e-02  6.9261826728266432e-02  6.6967792799781697e-02  6.1742946181783137e-02  5.4116594274995510e-02  4.5056200628171693e-02  3.5679683384994131e-02  2.6931535231252520e-02  1.9392444162601889e-02  1.3272329274354492e-02  8.5172109891985953e-03  4.9368504546828196e-03  2.3010715368219255e-03  3.9482497230035806e-04  -9.5826445423541481e-04  -1.8912490951546194e-03  -2.4987292834226719e-03  -2.8454720110203183e-03  -2.9756784999085896e-03  -2.9214305408855334e-03  -2.7097530735348966e-03  -2.3681693459615674e-03  -1.9287666764526274e-03  -1.4309317565700821e-03  -9.2271825383642150e-04  -4.6229764221852356e-04  -1.1739460754865140e-04  2.3200878052494718e-05  -1.2173960455021008e-05  5.9838734172394678e-05  3.3749395924063052e-04  8.8435903339085034e-04  1.7252961252640633e-03  2.8482544487147070e-03  4.2043077454017724e-03  5.7158045014472974e-03  7.2889284820959743e-03  8.8286258763659101e-03  1.0252355897438564e-02  1.1499822755092247e-02  1.2537228015586615e-02  1.3356247555600772e-02  1.3969022403576430e-02  1.4400903529804979e-02  1.4682474203722977e-02  1.4841872297311091e-02  1.4897894121035879e-02  1.4854021090567061e-02  1.4693356911123678e-02  1.4374293184516869e-02  1.3826770118299620e-02  1.2949219570335898e-02  1.1605977742279025e-02  9.6247875971059455e-03  6.7949567204377568e-03  2.8663860457336524e-03  -2.4514269709030186e-03  -9.4883490554218426e-03  -1.8604707101957461e-02  -3.0168312901296988e-02  -4.4512080807123301e-02  -6.1870751029442519e-02  -8.2303669320911446e-02  -1.0562210947896762e-01  -1.3135109922866597e-01  -1.5875472967497592e-01  -1.8693118276944323e-01