<?xml version="1.0"?>
<VTKFile type="UnstructuredGrid"  version="0.1"  >
<UnstructuredGrid>
<Piece  NumberOfPoints="16641" NumberOfCells="16384">
<Points>
<DataArray  type="Float64"  NumberOfComponents="3"  format="ascii">0 0 0  0.0078125 0 0  0.015625 0 0  0.0234375 0 0  0.03125 0 0  0.0390625 0 0  0.046875 0 0  0.0546875 0 0  0.0625 0 0  0.0703125 0 0  0.078125 0 0  0.0859375 0 0  0.09375 0 0  0.1015625 0 0  0.109375 0 0  0.1171875 0 0  0.125 0 0  0.1328125 0 0  0.140625 0 0  0.1484375 0 0  0.15625 0 0  0.1640625 0 0  0.171875 0 0  0.1796875 0 0  0.1875 0 0  0.1953125 0 0  0.203125 0 0  0.2109375 0 0  0.21875 0 0  0.2265625 0 0  0.234375 0 0  0.2421875 0 0  0.25 0 0  0.2578125 0 0  0.265625 0 0  0.2734375 0 0  0.28125 0 0  0.2890625 0 0  0.296875 0 0  0.3046875 0 0  0.3125 0 0  0.3203125 0 0  0.328125 0 0  0.3359375 0 0  0.34375 0 0  0.3515625 0 0  0.359375 0 0  0.3671875 0 0  0.375 0 0  0.3828125 0 0  0.390625 0 0  0.3984375 0 0  0.40625 0 0  0.4140625 0 0  0.421875 0 0  0.4296875 0 0  0.4375 0 0  0.4453125 0 0  0.453125 0 0  0.4609375 0 0  0.46875 0 0  0.4765625 0 0  0.484375 0 0  0.4921875 0 0  0.5 0 0  0.5078125 0 0  0.515625 0 0  0.5234375 0 0  0.53125 0 0  0.5390625 0 0  0.546875 0 0  0.5546875 0 0  0.5625 0 0  0.5703125 0 0  0.578125 0 0  0.5859375 0 0  0.59375 0 0  0.6015625 0 0  0.609375 0 0  0.6171875 0 0  0.625 0 0  0.6328125 0 0  0.640625 0 0  0.6484375 0 0  0.65625 0 0  0.6640625 0 0  0.671875 0 0  0.6796875 0 0  0.6875 0 0  0.6953125 0 0  0.703125 0 0  0.7109375 0 0  0.71875 0 0  0.7265625 0 0  0.734375 0 0  0.7421875 0 0  0.75 0 0  0.7578125 0 0  0.765625 0 0  0.7734375 0 0  0.78125 0 0  0.7890625 0 0  0.796875 0 0  0.8046875 0 0  0.8125 0 0  0.8203125 0 0  0.828125 0 0  0.8359375 0 0  0.84375 0 0  0.8515625 0 0  0.859375 0 0  0.8671875 0 0  0.875 0 0  0.8828125 0 0  0.890625 0 0  0.8984375 0 0  0.90625 0 0  0.9140625 0 0  0.921875 0 0  0.9296875 0 0  0.9375 0 0  0.9453125 0 0  0.953125 0 0  0.9609375 0 0  0.96875 0 0  0.9765625 0 0  0.984375 0 0  0.9921875 0 0  1 0 0  0 0.0078125 0  0.0078125 0.0078125 0  0.015625 0.0078125 0  0.0234375 0.0078125 0  0.03125 0.0078125 0  0.0390625 0.0078125 0  0.046875 0.0078125 0  0.0546875 0.0078125 0  0.0625 0.0078125 0  0.0703125 0.0078125 0  0.078125 0.0078125 0  0.0859375 0.0078125 0  0.09375 0.0078125 0  0.1015625 0.0078125 0  0.109375 0.0078125 0  0.1171875 0.0078125 0  0.125 0.0078125 0  0.1328125 0.0078125 0  0.140625 0.0078125 0  0.1484375 0.0078125 0  0.15625 0.0078125 0  0.1640625 0.0078125 0  0.171875 0.0078125 0  0.1796875 0.0078125 0  0.1875 0.0078125 0  0.1953125 0.0078125 0  0.203125 0.0078125 0  0.2109375 0.0078125 0  0.21875 0.0078125 0  0.2265625 0.0078125 0  0.234375 0.0078125 0  0.2421875 0.0078125 0  0.25 0.0078125 0  0.2578125 0.0078125 0  0.265625 0.0078125 0  0.2734375 0.0078125 0  0.28125 0.0078125 0  0.2890625 0.0078125 0  0.296875 0.0078125 0  0.3046875 0.0078125 0  0.3125 0.0078125 0  0.3203125 0.0078125 0  0.328125 0.0078125 0  0.3359375 0.0078125 0  0.34375 0.0078125 0  0.3515625 0.0078125 0  0.359375 0.0078125 0  0.3671875 0.0078125 0  0.375 0.0078125 0  0.3828125 0.0078125 0  0.390625 0.0078125 0  0.3984375 0.0078125 0  0.40625 0.0078125 0  0.4140625 0.0078125 0  0.421875 0.0078125 0  0.4296875 0.0078125 0  0.4375 0.0078125 0  0.4453125 0.0078125 0  0.453125 0.0078125 0  0.4609375 0.0078125 0  0.46875 0.0078125 0  0.4765625 0.0078125 0  0.484375 0.0078125 0  0.4921875 0.0078125 0  0.5 0.0078125 0  0.5078125 0.0078125 0  0.515625 0.0078125 0  0.5234375 0.0078125 0  0.53125 0.0078125 0  0.5390625 0.0078125 0  0.546875 0.0078125 0  0.5546875 0.0078125 0  0.5625 0.0078125 0  0.5703125 0.0078125 0  0.578125 0.0078125 0  0.5859375 0.0078125 0  0.59375 0.0078125 0  0.6015625 0.0078125 0  0.609375 0.0078125 0  0.6171875 0.0078125 0  0.625 0.0078125 0  0.6328125 0.0078125 0  0.640625 0.0078125 0  0.6484375 0.0078125 0  0.65625 0.0078125 0  0.6640625 0.0078125 0  0.671875 0.0078125 0  0.6796875 0.0078125 0  0.6875 0.0078125 0  0.6953125 0.0078125 0  0.703125 0.0078125 0  0.7109375 0.0078125 0  0.71875 0.0078125 0  0.7265625 0.0078125 0  0.734375 0.0078125 0  0.7421875 0.0078125 0  0.75 0.0078125 0  0.7578125 0.0078125 0  0.765625 0.0078125 0  0.7734375 0.0078125 0  0.78125 0.0078125 0  0.7890625 0.0078125 0  0.796875 0.0078125 0  0.8046875 0.0078125 0  0.8125 0.0078125 0  0.8203125 0.0078125 0  0.828125 0.0078125 0  0.8359375 0.0078125 0  0.84375 0.0078125 0  0.8515625 0.0078125 0  0.859375 0.0078125 0  0.8671875 0.0078125 0  0.875 0.0078125 0  0.8828125 0.0078125 0  0.890625 0.0078125 0  0.8984375 0.0078125 0  0.90625 0.0078125 0  0.9140625 0.0078125 0  0.921875 0.0078125 0  0.9296875 0.0078125 0  0.9375 0.0078125 0  0.9453125 0.0078125 0  0.953125 0.0078125 0  0.9609375 0.0078125 0  0.96875 0.0078125 0  0.9765625 0.0078125 0  0.984375 0.0078125 0  0.9921875 0.0078125 0  1 0.0078125 0  0 0.015625 0  0.0078125 0.015625 0  0.015625 0.015625 0  0.0234375 0.015625 0  0.03125 0.015625 0  0.0390625 0.015625 0  0.046875 0.015625 0  0.0546875 0.015625 0  0.0625 0.015625 0  0.0703125 0.015625 0  0.078125 0.015625 0  0.0859375 0.015625 0  0.09375 0.015625 0  0.1015625 0.015625 0  0.109375 0.015625 0  0.1171875 0.015625 0  0.125 0.015625 0  0.1328125 0.015625 0  0.140625 0.015625 0  0.1484375 0.015625 0  0.15625 0.015625 0  0.1640625 0.015625 0  0.171875 0.015625 0  0.1796875 0.015625 0  0.1875 0.015625 0  0.1953125 0.015625 0  0.203125 0.015625 0  0.2109375 0.015625 0  0.21875 0.015625 0  0.2265625 0.015625 0  0.234375 0.015625 0  0.2421875 0.015625 0  0.25 0.015625 0  0.2578125 0.015625 0  0.265625 0.015625 0  0.2734375 0.015625 0  0.28125 0.015625 0  0.2890625 0.015625 0  0.296875 0.015625 0  0.3046875 0.015625 0  0.3125 0.015625 0  0.3203125 0.015625 0  0.328125 0.015625 0  0.3359375 0.015625 0  0.34375 0.015625 0  0.3515625 0.015625 0  0.359375 0.015625 0  0.3671875 0.015625 0  0.375 0.015625 0  0.3828125 0.015625 0  0.390625 0.015625 0  0.3984375 0.015625 0  0.40625 0.015625 0  0.4140625 0.015625 0  0.421875 0.015625 0  0.4296875 0.015625 0  0.4375 0.015625 0  0.4453125 0.015625 0  0.453125 0.015625 0  0.4609375 0.015625 0  0.46875 0.015625 0  0.4765625 0.015625 0  0.484375 0.015625 0  0.4921875 0.015625 0  0.5 0.015625 0  0.5078125 0.015625 0  0.515625 0.015625 0  0.5234375 0.015625 0  0.53125 0.015625 0  0.5390625 0.015625 0  0.546875 0.015625 0  0.5546875 0.015625 0  0.5625 0.015625 0  0.5703125 0.015625 0  0.578125 0.015625 0  0.5859375 0.015625 0  0.59375 0.015625 0  0.6015625 0.015625 0  0.609375 0.015625 0  0.6171875 0.015625 0  0.625 0.015625 0  0.6328125 0.015625 0  0.640625 0.015625 0  0.6484375 0.015625 0  0.65625 0.015625 0  0.6640625 0.015625 0  0.671875 0.015625 0  0.6796875 0.015625 0  0.6875 0.015625 0  0.6953125 0.015625 0  0.703125 0.015625 0  0.7109375 0.015625 0  0.71875 0.015625 0  0.7265625 0.015625 0  0.734375 0.015625 0  0.7421875 0.015625 0  0.75 0.015625 0  0.7578125 0.015625 0  0.765625 0.015625 0  0.7734375 0.015625 0  0.78125 0.015625 0  0.7890625 0.015625 0  0.796875 0.015625 0  0.8046875 0.015625 0  0.8125 0.015625 0  0.8203125 0.015625 0  0.828125 0.015625 0  0.8359375 0.015625 0  0.84375 0.015625 0  0.8515625 0.015625 0  0.859375 0.015625 0  0.8671875 0.015625 0  0.875 0.015625 0  0.8828125 0.015625 0  0.890625 0.015625 0  0.8984375 0.015625 0  0.90625 0.015625 0  0.9140625 0.015625 0  0.921875 0.015625 0  0.9296875 0.015625 0  0.9375 0.015625 0  0.9453125 0.015625 0  0.953125 0.015625 0  0.9609375 0.015625 0  0.96875 0.015625 0  0.9765625 0.015625 0  0.984375 0.015625 0  0.9921875 0.015625 0  1 0.015625 0  0 0.0234375 0  0.0078125 0.0234375 0  0.015625 0.0234375 0  0.0234375 0.0234375 0  0.03125 0.0234375 0  0.0390625 0.0234375 0  0.046875 0.0234375 0  0.0546875 0.0234375 0  0.0625 0.0234375 0  0.0703125 0.0234375 0  0.078125 0.0234375 0  0.0859375 0.0234375 0  0.09375 0.0234375 0  0.1015625 0.0234375 0  0.109375 0.0234375 0  0.1171875 0.0234375 0  0.125 0.0234375 0  0.1328125 0.0234375 0  0.140625 0.0234375 0  0.1484375 0.0234375 0  0.15625 0.0234375 0  0.1640625 0.0234375 0  0.171875 0.0234375 0  0.1796875 0.0234375 0  0.1875 0.0234375 0  0.1953125 0.0234375 0  0.203125 0.0234375 0  0.2109375 0.0234375 0  0.21875 0.0234375 0  0.2265625 0.0234375 0  0.234375 0.0234375 0  0.2421875 0.0234375 0  0.25 0.0234375 0  0.2578125 0.0234375 0  0.265625 0.0234375 0  0.2734375 0.0234375 0  0.28125 0.0234375 0  0.2890625 0.0234375 0  0.296875 0.0234375 0  0.3046875 0.0234375 0  0.3125 0.0234375 0  0.3203125 0.0234375 0  0.328125 0.0234375 0  0.3359375 0.0234375 0  0.34375 0.0234375 0  0.3515625 0.0234375 0  0.359375 0.0234375 0  0.3671875 0.0234375 0  0.375 0.0234375 0  0.3828125 0.0234375 0  0.390625 0.0234375 0  0.3984375 0.0234375 0  0.40625 0.0234375 0  0.4140625 0.0234375 0  0.421875 0.0234375 0  0.4296875 0.0234375 0  0.4375 0.0234375 0  0.4453125 0.0234375 0  0.453125 0.0234375 0  0.4609375 0.0234375 0  0.46875 0.0234375 0  0.4765625 0.0234375 0  0.484375 0.0234375 0  0.4921875 0.0234375 0  0.5 0.0234375 0  0.5078125 0.0234375 0  0.515625 0.0234375 0  0.5234375 0.0234375 0  0.53125 0.0234375 0  0.5390625 0.0234375 0  0.546875 0.0234375 0  0.5546875 0.0234375 0  0.5625 0.0234375 0  0.5703125 0.0234375 0  0.578125 0.0234375 0  0.5859375 0.0234375 0  0.59375 0.0234375 0  0.6015625 0.0234375 0  0.609375 0.0234375 0  0.6171875 0.0234375 0  0.625 0.0234375 0  0.6328125 0.0234375 0  0.640625 0.0234375 0  0.6484375 0.0234375 0  0.65625 0.0234375 0  0.6640625 0.0234375 0  0.671875 0.0234375 0  0.6796875 0.0234375 0  0.6875 0.0234375 0  0.6953125 0.0234375 0  0.703125 0.0234375 0  0.7109375 0.0234375 0  0.71875 0.0234375 0  0.7265625 0.0234375 0  0.734375 0.0234375 0  0.7421875 0.0234375 0  0.75 0.0234375 0  0.7578125 0.0234375 0  0.765625 0.0234375 0  0.7734375 0.0234375 0  0.78125 0.0234375 0  0.7890625 0.0234375 0  0.796875 0.0234375 0  0.8046875 0.0234375 0  0.8125 0.0234375 0  0.8203125 0.0234375 0  0.828125 0.0234375 0  0.8359375 0.0234375 0  0.84375 0.0234375 0  0.8515625 0.0234375 0  0.859375 0.0234375 0  0.8671
[...]
<PointData  Scalars="v_sol"> 
<DataArray  type="Float64"  Name="v_sol"  format="ascii">-9.5711344548739639e-07  -6.0558139052417259e-06  -5.0608727334481806e-06  3.7936670285083749e-07  8.2146297782859409e-06  1.7030125093722515e-05  2.5708135405753669e-05  3.3333275662498126e-05  3.9178716561481914e-05  4.2788292386348183e-05  4.4015905885353206e-05  4.3033382739919849e-05  4.0273556961065062e-05  3.6339057804932769e-05  3.1893265156750893e-05  2.7561378066026198e-05  2.3856947394316047e-05  2.1142475521429574e-05  1.9620506456203329e-05  1.9345773682893253e-05  2.0248713811573411e-05  2.2162457873502997e-05  2.4846332223516722e-05  2.8006037208561145e-05  3.1317681233797236e-05  3.4456571355800234e-05  3.7123955960082324e-05  3.9072037291919594e-05  4.0128892771346650e-05  4.0204256977302220e-05  3.9238851703147990e-05  3.7109841434087452e-05  3.3574808791668269e-05  2.8263302883080965e-05  2.0645318056595034e-05  1.0043767569481624e-05  -4.3449716042926895e-06  -2.3290751849527083e-05  -4.7642471797904390e-05  -7.8183707495529982e-05  -1.1576757123723867e-04  -1.6106878617511600e-04  -2.1436087157904012e-04  -2.7553161435053651e-04  -3.4416205078641269e-04  -4.1980704841359026e-04  -5.0168744198817155e-04  -5.8823188643328489e-04  -6.7679453527965110e-04  -7.6372667297126633e-04  -8.4476357067973502e-04  -9.1555205872519596e-04  -9.7214719721374081e-04  -1.0113701993611605e-03  -1.0309905580682900e-03  -1.0297397811656985e-03  -1.0072098989862591e-03  -9.6367029378799601e-04  -8.9988555821070824e-04  -8.1690606497684644e-04  -7.1598785583497121e-04  -5.9834810164803532e-04  -4.6551085610328758e-04  -3.1816584454524426e-04  -1.5705329810155593e-04  1.2599558068852839e-05  1.8916550955984604e-04  3.7208787233294362e-04  5.5768513361390925e-04  7.4336086284966041e-04  9.2525353111935099e-04  1.0994425029156054e-03  1.2613051649751489e-03  1.4060525246630906e-03  1.5286625914337495e-03  1.6242934413137607e-03  1.6884979234226335e-03  1.7176340921366945e-03  1.7091813076866823e-03  1.6621001783028338e-03  1.5770659278807025e-03  1.4566412307648780e-03  1.3052302477848041e-03  1.1289219235614309e-03  9.3503903310993182e-04  7.3161704904375891e-04  5.2665272915185918e-04  3.2743058752553856e-04  1.3979951093230668e-04  -3.2187883310438345e-05  -1.8740632945565106e-04  -3.2454282750970099e-04  -4.4370385528932075e-04  -5.4622442769636324e-04  -6.3551330676953728e-04  -7.1325100425043760e-04  -7.7508259227873871e-04  -8.1600866082439728e-04  -8.3042234512773708e-04  -8.1288684989594688e-04  -7.6189092742379833e-04  -6.8158664617294358e-04  -5.8147036498779384e-04  -4.7358790748431342e-04  -3.6902205911766421e-04  -2.7561902960635790e-04  -1.9755816923355766e-04  -1.3586895161690716e-04  -8.9425647819416876e-05  -5.5923598178906927e-05  -3.2720375949489332e-05  -1.7344227577761041e-05  -7.6294084862103037e-06  -1.7455919725633768e-06  1.7948968636064634e-06  4.1510905391149200e-06  6.1584492670942768e-06  8.3425535149181135e-06  1.0943549349163998e-05  1.3949112881212822e-05  1.7134513514265333e-05  2.0103926067676306e-05  2.2343919551103014e-05  2.3270502723044050e-05  2.2302082310583534e-05  1.8896205121886165e-05  1.2784458193096771e-05  4.4854955877979625e-06  -8.3811454373629260e-07  2.0359290998946807e-06  3.2768954064809837e-05  2.8123357026052384e-05  -2.2575059562523785e-07  -4.0358244808594968e-05  -8.5346656472041094e-05  -1.2960109096836578e-04  -1.6845745400233128e-04  -1.9821790013235070e-04  -2.1652287763004711e-04  -2.2263127214080047e-04  -2.1743256246755150e-04  -2.0317234888626197e-04  -1.8296291878310103e-04  -1.6021763891599874e-04  -1.3813552201048974e-04  -1.1932890443820939e-04  -1.0562700506665824e-04  -9.8038210471936916e-05  -9.6820789819322206e-05  -1.0160804773662194e-04  -1.1154417036916227e-04  -1.2540428730080524e-04  -1.4169949697633889e-04  -1.5879017888157404e-04  -1.7502229214051576e-04  -1.8887891438255341e-04  -1.9913062330005678e-04  -2.0494687173385905e-04  -2.0588646630389305e-04  -2.0167072261880202e-04  -1.9178140401366180e-04  -1.7510628307831829e-04  -1.4974174304909109e-04  -1.1292859092374594e-04  -6.1214277032762724e-05  9.2542035501078805e-06  1.0242643524763611e-04  2.2239438467496237e-04  3.7324391297717069e-04  5.5892774724021596e-04  7.8282967370406711e-04  1.0468564690516396e-03  1.3502750694772867e-03  1.6909390285334213e-03  2.0654668204417807e-03  2.4681607665187994e-03  2.8903368586154273e-03  3.3193159309153446e-03  3.7390088289748599e-03  4.1313307456813976e-03  4.4779993507367251e-03  4.7621903024563129e-03  4.9698042803673582e-03  5.0901950116917401e-03  5.1163609424940458e-03  5.0446825286890829e-03  4.8743537495092486e-03  4.6066723090234830e-03  4.2443374037523319e-03  3.7908743810593577e-03  3.2503422751497071e-03  2.6272471787945543e-03  1.9274284894684366e-03  1.1585674307357048e-03  3.2286940162281659e-04  -5.7807679512054348e-04  -1.5312718291915718e-03  -2.5214136521678537e-03  -3.5323270127886617e-03  -4.5429003667146178e-03  -5.5285272373586276e-03  -6.4602403018018274e-03  -7.3060243498866990e-03  -8.0318087253703450e-03  -8.6036757940467085e-03  -8.9903438400177043e-03  -9.1662287322106430e-03  -9.1144435233344503e-03  -8.8294814341433221e-03  -8.3189094184359623e-03  -7.6039099966165357e-03  -6.7180652045988800e-03  -5.7048525193977009e-03  -4.6135273292621255e-03  -3.4947169562715881e-03  -2.3950952521562497e-03  -1.3541844488254504e-03  -3.9923074640008154e-04  4.5053828412107346e-04  1.1933830831765135e-03  1.8410897060926112e-03  2.4035348225175867e-03  2.8891132985065706e-03  3.3061330265910789e-03  3.6578542903767811e-03  3.9319640854082304e-03  4.1042612618224445e-03  4.1471015368776953e-03  4.0378296862749073e-03  3.7712059389286724e-03  3.3675006183345184e-03  2.8706855306815200e-03  2.3368177386752461e-03  1.8188695425493118e-03  1.3557948201201775e-03  9.6897760974221070e-04  6.6371584846060760e-04  4.3431922001654720e-04  2.6929347208025801e-04  1.5548757367454992e-04  8.0499871667114115e-05  3.3514745630752696e-05  5.4188036261321252e-06  -1.1221592847486739e-05  -2.2199871697037278e-05  -3.1688410546457187e-05  -4.2301339898235561e-05  -5.5215944009894708e-05  -7.0339990048482723e-05  -8.6505385855425735e-05  -1.0168380755493015e-04  -1.1323787662231491e-04  -1.1817754983217875e-04  -1.1351955642953742e-04  -9.6317766633190137e-05  -6.5263155268059737e-05  -1.9824965420942830e-05  7.3951866513750602e-06  1.2557460792312303e-05  9.2483829480435647e-05  5.5944846949387161e-05  -5.5895474714364327e-05  -2.1097817736863940e-04  -3.8337034649326850e-04  -5.5167290834181822e-04  -6.9804881424560198e-04  -8.0890817402174818e-04  -8.7600583869415255e-04  -8.9711508998491045e-04  -8.7584664258198361e-04  -8.2056321705409297e-04  -7.4265654527760601e-04  -6.5459015028104122e-04  -5.6811533875777748e-04  -4.9293838699159974e-04  -4.3595537036971810e-04  -4.0101844011579857e-04  -3.8909937959227944e-04  -3.9867728591058693e-04  -4.2619875693899171e-04  -4.6653313894629537e-04  -5.1340451125451785e-04  -5.5982084183492267e-04  -5.9855597175178491e-04  -6.2271208636689192e-04  -6.2624812579803295e-04  -6.0422272147663415e-04  -5.5254376809798123e-04  -4.6720989574893082e-04  -3.4307906910935424e-04  -1.7243177293814059e-04  5.5900609285798060e-05  3.5623408766000602e-04  7.4493054128564292e-04  1.2391371437343137e-03  1.8558009998871029e-03  2.6103614379102344e-03  3.5144810027711443e-03  4.5743396726076841e-03  5.7894834616417420e-03  7.1501553006699777e-03  8.6338297424829683e-03  1.0202269116544593e-02  1.1803111431696593e-02  1.3373051316330993e-02  1.4842340353015130e-02  1.6141573799988106e-02  1.7208302845373315e-02  1.7992667365265752e-02  1.8460714759636242e-02  1.8595237278154545e-02  1.8394413068935498e-02  1.7868985863683441e-02  1.7038740870466796e-02  1.5928949781090020e-02  1.4567245442987460e-02  1.2981188985458957e-02  1.1196617843175206e-02  9.2367653885616820e-03  7.1220041662267411e-03  4.8702716263049816e-03  2.4974557037019838e-03  1.7572384001262171e-05  -2.5520934322902961e-03  -5.1930683918863588e-03  -7.8872113514890704e-03  -1.0608631540001891e-02  -1.3323820925608123e-02  -1.5991402953592627e-02  -1.8560959170939625e-02  -2.0973452223434743e-02  -2.3162092401887848e-02  -2.5054994566447428e-02  -2.6578909643262108e-02  -2.7664549006739730e-02  -2.8252708660799764e-02  -2.8300806886136565e-02  -2.7788707635113083e-02  -2.6722932936937421e-02  -2.5138243908848598e-02  -2.3096206529354863e-02  -2.0680410012264252e-02  -1.7989639338389003e-02  -1.5128527406787476e-02  -1.2199412705585009e-02  -9.2924921034631160e-03  -6.4814906045559256e-03  -3.8144745572917995e-03  -1.3169673746473334e-03  1.0052392872759058e-03  3.1668818600299976e-03  5.1929186282320986e-03  7.1036641464846308e-03  8.9021444507376840e-03  1.0564195015570496e-02  1.2020507111335520e-02  1.3155933622486892e-02  1.3830956868108625e-02  1.3919162610693423e-02  1.3358147592655493e-02  1.2190426818562904e-02  1.0568422658279057e-02  8.7142510361684477e-03  6.8541778178557314e-03  5.1622408654550603e-03  3.7366562006466795e-03  2.6064046674371404e-03  1.7535907934768987e-03  1.1366960331470554e-03  7.0702550402227337e-04  4.1764156993143251e-04  2.2723228665042067e-04  1.0143757693036654e-04  1.3240029767026567e-05  -5.7102292792842763e-05  -1.2245191245672808e-04  -1.8945207435177279e-04  -2.5935733892694292e-04  -3.2895962218332340e-04  -3.9157997118773448e-04  -4.3815344452310273e-04  -4.5839248331300888e-04  -4.4218788574093099e-04  -3.8101653407361007e-04  -2.7200840941599624e-04  -1.2300197492125676e-04  8.5012061502563559e-06  2.2274322245288339e-05  1.2513104168062857e-04  2.2641846559579109e-05  -2.1313083306462457e-04  -5.2709749789341337e-04  -8.7038880449768043e-04  -1.2010254251255993e-03  -1.4840986685234533e-03  -1.6938507206122485e-03  -1.8155713918307087e-03  -1.8464493724953837e-03  -1.7947635032317152e-03  -1.6775141249723636e-03  -1.5170375927976393e-03  -1.3373393827393681e-03  -1.1608115400382631e-03  -1.0057924047896640e-03  -8.8514044139440689e-04  -8.0575763313805462e-04  -7.6882217465951488e-04  -7.7045040789806287e-04  -8.0253734842007890e-04  -8.5359952859578609e-04  -9.0958043267355009e-04  -9.5470173106484589e-04  -9.7240499859883812e-04  -9.4629715397582419e-04  -8.6095120408072182e-04  -7.0228946378479511e-04  -4.5698890985775746e-04  -1.1056754073749183e-04  3.5516549796349629e-04  9.6410830635609921e-04  1.7465228400716370e-03  2.7377724345939154e-03  3.9748847644959558e-03  5.4915195664291695e-03  7.3134630967790536e-03  9.4546321674731457e-03  1.1911903911406450e-02  1.4657325873582823e-02  1.7632079500288372e-02  2.0744139423387580e-02  2.3871195596693984e-02  2.6871241319044080e-02  2.9597508529532853e-02  3.1915499086072316e-02  3.3717546154704091e-02  3.4931632955086417e-02  3.5524078093748565e-02  3.5496474037886513e-02  3.4878898084339437e-02  3.3721313297659324e-02  3.2084957472078762e-02  3.0034852068747703e-02  2.7634045795697761e-02  2.4939705918563138e-02  2.2000893515013401e-02  1.8857701769659462e-02  1.5541418386093611e-02  1.2075396159024894e-02  8.4764519616846376e-03  4.7564279284979675e-03  9.2440320709363875e-04  -3.0112197744204543e-03  -7.0451526252593016e-03  -1.1166957039627917e-02  -1.5355473526111576e-02  -1.9583002530535812e-02  -2.3810529218123579e-02  -2.7986061402395911e-02  -3.2042728907088272e-02  -3.5898415572431841e-02  -3.9456620085922094e-02  -4.2609403381852727e-02  -4.5242675658968959e-02  -4.7243896977913390e-02  -4.8511890326876764e-02  -4.8967738923853324e-02  -4.8565340728713206e-02  -4.7299668542318374e-02  -4.5210964108931419e-02  -4.2383483450840455e-02  -3.8938594659831335e-02  -3.5022934130659683e-02  -3.0793945629013487e-02  -2.6404184925201891e-02  -2.1988972892484474e-02  -1.7654285527921209e-02  -1.3474415488572441e-02  -9.4850054272860966e-03  -5.6834725763510530e-03  -2.0400556082294601e-03  1.4960062531942924e-03  4.9840989747711286e-03  8.4708283841838129e-03  1.1959909574874476e-02  1.5390095790174979e-02  1.8608516334025993e-02  2.1359869403414406e-02  2.3319553062525773e-02  2.4171368924176349e-02  2.3720496553671418e-02  2.1994585020735577e-02  1.9269986651970314e-02  1.5991949920031348e-02  1.2629263840424457e-02  9.5453642409810031e-03  6.9439882056400752e-03  4.8855104708255964e-03  3.3360414284551040e-03  2.2154025004977778e-03  1.4298316162998971e-03  8.8963272873806198e-04  5.1729216808523196e-04  2.5059593184250268e-04  4.3248004084283953e-05  -1.3588617702388589e-04  -3.0433611843498864e-04  -4.6799531207900757e-04  -6.2326392691760320e-04  -7.5927716138471173e-04  -8.6023824171814088e-04  -9.0791568527618597e-04  -8.8448394589718223e-04  -7.7582751093465416e-04  -5.7723411248781088e-04  -3.0045933061031228e-04  2.9252975068875430e-06  3.0449366831797996e-05  1.1093161705756371e-04  -9.6915748951959508e-05  -4.9607754982705762e-04  -1.0055257699081558e-03  -1.5504278500233437e-03  -2.0650116930876080e-03  -2.4950945715474875e-03  -2.8020790594053420e-03  -2.9658408689566414e-03  -2.9854087806603876e-03  -2.8769065059636592e-03  -2.6692146824646261e-03  -2.3983484858170396e-03  -2.1017190950723646e-03  -1.8132375187271824e-03  -1.5598202640292678e-03  -1.3594421812476024e-03  -1.2205465828332590e-03  -1.1424600000902892e-03  -1.1163822752274517e-03  -1.1265904085089838e-03  -1.1516801618829211e-03  -1.1657860886812867e-03  -1.1397701511256684e-03  -1.0425129987726605e-03  -8.4236377004555699e-04  -5.0821089365435661e-04  -9.3981596189995826e-06  6.8573858366085020e-04  1.6126414483745100e-03  2.8139667087515529e-03  4.3413475613095637e-03  6.2526742007532662e-03  8.6049589375375157e-03  1.1444779878613554e-02  1.4797711642845244e-02  1.8656357373322698e-02  2.2968414894111683e-02  2.7626643105639975e-02  3.2466880889720835e-02  3.7277942859074868e-02  4.1824282465039241e-02  4.5876237707091518e-02  4.9239016934340969e-02  5.1773982055776414e-02  5.3407648594112074e-02  5.4128926334317977e-02  5.3977920361835262e-02  5.3030420664513224e-02  5.1382132246213880e-02  4.9135178601868619e-02  4.6388154823929925e-02  4.3229805363271881e-02  3.9735792326176071e-02  3.5967716727915204e-02  3.1973599948341556e-02  2.7789176446589899e-02  2.3439563347322875e-02  1.8941045814787491e-02  1.4302871214790592e-02  9.5289625275844971e-03  4.6197753657816658e-03  -4.2639808624156080e-04  -5.6118804517366607e-03  -1.0932630917942068e-02  -1.6380686647966530e-02  -2.1943990931270016e-02  -2.7597439207280902e-02  -3.3302397550930868e-02  -3.9002248528632502e-02  -4.4620225911226594e-02  -5.0056844982323594e-02  -5.5189667212286762e-02  -5.9874998520247864e-02  -6.3953048033951632e-02  -6.7256758504695729e-02  -6.9624620251916722e-02  -7.0916657754708984e-02  -7.1031894674991172e-02  -6.9924570845725939e-02  -6.7615798704148980e-02  -6.4197593492315880e-02  -5.9827306607545719e-02  -5.4712570095266498e-02  -4.9088852148756426e-02  -4.3193892180184393e-02  -3.7242802607763963e-02  -3.1409623897240752e-02  -2.5812334950532308e-02  -2.0512547368436520e-02  -1.5516256120112707e-02  -1.0775636246840905e-02  -6.2033244008363611e-03  -1.6816010709699168e-03  2.9156283233778544e-03  7.6907024439098401e-03  1.2678136694933836e-02  1.7800174769547421e-02  2.2825049727772686e-02  2.7344364684428361e-02  3.0815600304301107e-02  3.2687480191972512e-02  3.2592554226275820e-02  3.0524809776078906e-02  2.6889590693912297e-02  2.2370422247097607e-02  1.7687105692657145e-02  1.3388847422907515e-02  9.7745649246241424e-03  6.9260294373191360e-03  4.7871849667277333e-03  3.2368882114079253e-03  2.1369864312811089e-03  1.3584159947803191e-03  7.9322298966181474e-04  3.5872776254498135e-04  -2.5472152083907478e-06  -3.2516707187980963e-04  -6.2409927103858191e-04  -8.9839796255940729e-04  -1.1349766930520387e-03  -1.3124517901391033e-03  -1.4051504460960156e-03  -1.3874714173117701e-03  -1.2387163883032441e-03  -9.4922981681721142e-04  -5.2631811082237798e-04  -5.0299392275661687e-06  3.7716405772472517e-05  4.1545458220965968e-05  -3.1970819645928589e-04  -9.2563990420211077e-04  -1.6667691090553227e-03  -2.4386999768629090e-03  -3.1486657446324847e-03  -3.7215176516243735e-03  -4.1063222566194461e-03  -4.2802924324620130e-03  -4.2487149737270987e-03  -4.0406631337279435e-03  -3.7016044251311380e-03  -3.2846951147728954e-03  -2.8425229058785732e-03  -2.4205418634934781e-03  -2.0527455179941748e-03  -1.7595245603155927e-03  -1.5472986376210973e-03  -1.4093156984917631e-03  -1.3270917994935008e-03  -1.2720837656492957e-03  -1.2072740364739917e-03  -1.0886543329023690e-03  -8.6687257470240261e-04  -4.8896873369231621e-04  1.0011955626086156e-04  9.5648411795405707e-04  2.1375382155674541e-03  3.7045968390198862e-03  5.7261419777409478e-03  8.2784310097645392e-03  1.1440718310977562e-02  1.5283071674351913e-02  1.9847827859083296e-02  2.5128666195739596e-02  3.1050176476448029e-02  3.7453227463451588e-02  4.4093923418004978e-02  5.0663389786765482e-02  5.6826631703435826e-02  6.2270618300222326e-02  6.6746900889468941e-02  7.0097481476056545e-02  7.2260268528326663e-02  7.3256824725721550e-02  7.3169862662495117e-02  7.2118082820563853e-02  7.0234076303091281e-02  6.7648307608829228e-02  6.4479534047268902e-02  6.0830535093604400e-02  5.6787374178031383e-02  5.2420553283437234e-02  4.7786848238366646e-02  4.2931137054392624e-02  3.7887931927364588e-02  3.2682590237286896e-02  2.7332299078065010e-02  2.1846967442329789e-02  1.6230133970663432e-02  1.0480031766671541e-02  4.5906949322727531e-03  -1.4461991614859041e-03  -7.6390256738083206e-03  -1.3997846640700369e-02  -2.0528469009324899e-02  -2.7227059936955299e-02  -3.4080732337315719e-02  -4.1061330692636948e-02  -4.8122160686890091e-02  -5.5192656188454585e-02  -6.2174606528625505e-02  -6.8938540005161780e-02  -7.5322633593318311e-02  -8.1134513365479791e-02  -8.6157813111034001e-02  -9.0164236793099165e-02  -9.2931707942237804e-02  -9.4267635823177737e-02  -9.4034861988388271e-02  -9.2176090071958816e-02  -8.8731575778921004e-02  -8.3845068063071376e-02  -7.7754796862347500e-02  -7.0769602447745716e-02  -6.3233738658635089e-02  -5.5487119394693127e-02  -4.7827687593578340e-02  -4.0484191465293883e-02  -3.3597768319560212e-02  -2.7219324305191306e-02  -2.1316947059837336e-02  -1.5784937067199210e-02  -1.0468819043300017e-02  -5.1794558206090394e-03  2.8581584156604247e-04  6.0954117295829793e-03  1.2323715232416698e-02  1.8885355244924157e-02  2.5474211148766825e-02  3.1531674522398148e-02  3.6303828040655871e-02  3.9022037561812196e-02  3.9181176860177663e-02  3.6784544500626022e-02  3.2391750585033637e-02  2.6909811718397909e-02  2.1257907329362287e-02  1.6108402240550299e-02  1.1806950764216121e-02  8.4311534238893735e-03  5.8957245844253004e-03  4.0428949332875982e-03  2.7005973952782198e-03  1.7137067471174018e-03  9.5777772957758437e-04  3.4273188246772946e-04  -1.8880301130650960e-04  -6.6567907012971873e-04  -1.0933663305656496e-03  -1.4593205694223902e-03  -1.7383859769609694e-03  -1.8983028055043220e-03  -1.9054561973272251e-03  -1.7308498825260915e-03  -1.3562461823251779e-03  -7.7877490177525818e-04  -1.4118287598713459e-05  4.5031741301677659e-05  -8.7929634089499092e-05  -6.6027802127185628e-04  -1.5245494763665682e-03  -2.5379433996292446e-03  -3.5611567233103051e-03  -4.4702812768710820e-03  -5.1676780509681405e-03  -5.5919799391718848e-03  -5.7228510517225179e-03  -5.5790372873256366e-03  -5.2101809734880584e-03  -4.6847830830503432e-03  -4.0773194510813045e-03  -3.4570260573719759e-03  -2.8797673064815382e-03  -2.3832942324475610e-03  -1.9854256974449138e-03  -1.6843081952264058e-03  -1.4599780927147810e-03  -1.2764764125504820e-03  -1.0840078609743254e-03  -8.2105974787596186e-04  -4.1638965417563177e-04  2.0917388626142444e-04  1.1406074084087253e-03  2.4665650477081582e-03  4.2785636158001530e-03  6.6715018151507800e-03  9.7443884291284234e-03  1.3598522731358420e-02  1.8327166493889043e-02  2.3993997193900978e-02  3.0603245735153949e-02  3.8067661276896245e-02  4.6184941297060189e-02  5.4635808500450564e-02  6.3012722870878737e-02 