<?xml version="1.0"?>
<VTKFile type="UnstructuredGrid"  version="0.1"  >
<UnstructuredGrid>
<Piece  NumberOfPoints="1089" NumberOfCells="1024">
<Points>
<DataArray  type="Float64"  NumberOfComponents="3"  format="ascii">0 0 0  0.03125 0 0  0.0625 0 0  0.09375 0 0  0.125 0 0  0.15625 0 0  0.1875 0 0  0.21875 0 0  0.25 0 0  0.28125 0 0  0.3125 0 0  0.34375 0 0  0.375 0 0  0.40625 0 0  0.4375 0 0  0.46875 0 0  0.5 0 0  0.53125 0 0  0.5625 0 0  0.59375 0 0  0.625 0 0  0.65625 0 0  0.6875 0 0  0.71875 0 0  0.75 0 0  0.78125 0 0  0.8125 0 0  0.84375 0 0  0.875 0 0  0.90625 0 0  0.9375 0 0  0.96875 0 0  1 0 0  0 0.03125 0  0.03125 0.03125 0  0.0625 0.03125 0  0.09375 0.03125 0  0.125 0.03125 0  0.15625 0.03125 0  0.1875 0.03125 0  0.21875 0.03125 0  0.25 0.03125 0  0.28125 0.03125 0  0.3125 0.03125 0  0.34375 0.03125 0  0.375 0.03125 0  0.40625 0.03125 0  0.4375 0.03125 0  0.46875 0.03125 0  0.5 0.03125 0  0.53125 0.03125 0  0.5625 0.03125 0  0.59375 0.03125 0  0.625 0.03125 0  0.65625 0.03125 0  0.6875 0.03125 0  0.71875 0.03125 0  0.75 0.03125 0  0.78125 0.03125 0  0.8125 0.03125 0  0.84375 0.03125 0  0.875 0.03125 0  0.90625 0.03125 0  0.9375 0.03125 0  0.96875 0.03125 0  1 0.03125 0  0 0.0625 0  0.03125 0.0625 0  0.0625 0.0625 0  0.09375 0.0625 0  0.125 0.0625 0  0.15625 0.0625 0  0.1875 0.0625 0  0.21875 0.0625 0  0.25 0.0625 0  0.28125 0.0625 0  0.3125 0.0625 0  0.34375 0.0625 0  0.375 0.0625 0  0.40625 0.0625 0  0.4375 0.0625 0  0.46875 0.0625 0  0.5 0.0625 0  0.53125 0.0625 0  0.5625 0.0625 0  0.59375 0.0625 0  0.625 0.0625 0  0.65625 0.0625 0  0.6875 0.0625 0  0.71875 0.0625 0  0.75 0.0625 0  0.78125 0.0625 0  0.8125 0.0625 0  0.84375 0.0625 0  0.875 0.0625 0  0.90625 0.0625 0  0.9375 0.0625 0  0.96875 0.0625 0  1 0.0625 0  0 0.09375 0  0.03125 0.09375 0  0.0625 0.09375 0  0.09375 0.09375 0  0.125 0.09375 0  0.15625 0.09375 0  0.1875 0.09375 0  0.21875 0.09375 0  0.25 0.09375 0  0.28125 0.09375 0  0.3125 0.09375 0  0.34375 0.09375 0  0.375 0.09375 0  0.40625 0.09375 0  0.4375 0.09375 0  0.46875 0.09375 0  0.5 0.09375 0  0.53125 0.09375 0  0.5625 0.09375 0  0.59375 0.09375 0  0.625 0.09375 0  0.65625 0.09375 0  0.6875 0.09375 0  0.71875 0.09375 0  0.75 0.09375 0  0.78125 0.09375 0  0.8125 0.09375 0  0.84375 0.09375 0  0.875 0.09375 0  0.90625 0.09375 0  0.9375 0.09375 0  0.96875 0.09375 0  1 0.09375 0  0 0.125 0  0.03125 0.125 0  0.0625 0.125 0  0.09375 0.125 0  0.125 0.125 0  0.15625 0.125 0  0.1875 0.125 0  0.21875 0.125 0  0.25 0.125 0  0.28125 0.125 0  0.3125 0.125 0  0.34375 0.125 0  0.375 0.125 0  0.40625 0.125 0  0.4375 0.125 0  0.46875 0.125 0  0.5 0.125 0  0.53125 0.125 0  0.5625 0.125 0  0.59375 0.125 0  0.625 0.125 0  0.65625 0.125 0  0.6875 0.125 0  0.71875 0.125 0  0.75 0.125 0  0.78125 0.125 0  0.8125 0.125 0  0.84375 0.125 0  0.875 0.125 0  0.90625 0.125 0  0.9375 0.125 0  0.96875 0.125 0  1 0.125 0  0 0.15625 0  0.03125 0.15625 0  0.0625 0.15625 0  0.09375 0.15625 0  0.125 0.15625 0  0.15625 0.15625 0  0.1875 0.15625 0  0.21875 0.15625 0  0.25 0.15625 0  0.28125 0.15625 0  0.3125 0.15625 0  0.34375 0.15625 0  0.375 0.15625 0  0.40625 0.15625 0  0.4375 0.15625 0  0.46875 0.15625 0  0.5 0.15625 0  0.53125 0.15625 0  0.5625 0.15625 0  0.59375 0.15625 0  0.625 0.15625 0  0.65625 0.15625 0  0.6875 0.15625 0  0.71875 0.15625 0  0.75 0.15625 0  0.78125 0.15625 0  0.8125 0.15625 0  0.84375 0.15625 0  0.875 0.15625 0  0.90625 0.15625 0  0.9375 0.15625 0  0.96875 0.15625 0  1 0.15625 0  0 0.1875 0  0.03125 0.1875 0  0.0625 0.1875 0  0.09375 0.1875 0  0.125 0.1875 0  0.15625 0.1875 0  0.1875 0.1875 0  0.21875 0.1875 0  0.25 0.1875 0  0.28125 0.1875 0  0.3125 0.1875 0  0.34375 0.1875 0  0.375 0.1875 0  0.40625 0.1875 0  0.4375 0.1875 0  0.46875 0.1875 0  0.5 0.1875 0  0.53125 0.1875 0  0.5625 0.1875 0  0.59375 0.1875 0  0.625 0.1875 0  0.65625 0.1875 0  0.6875 0.1875 0  0.71875 0.1875 0  0.75 0.1875 0  0.78125 0.1875 0  0.8125 0.1875 0  0.84375 0.1875 0  0.875 0.1875 0  0.90625 0.1875 0  0.9375 0.1875 0  0.96875 0.1875 0  1 0.1875 0  0 0.21875 0  0.03125 0.21875 0  0.0625 0.21875 0  0.09375 0.21875 0  0.125 0.21875 0  0.15625 0.21875 0  0.1875 0.21875 0  0.21875 0.21875 0  0.25 0.21875 0  0.28125 0.21875 0  0.3125 0.21875 0  0.34375 0.21875 0  0.375 0.21875 0  0.40625 0.21875 0  0.4375 0.21875 0  0.46875 0.21875 0  0.5 0.21875 0  0.53125 0.21875 0  0.5625 0.21875 0  0.59375 0.21875 0  0.625 0.21875 0  0.65625 0.21875 0  0.6875 0.21875 0  0.71875 0.21875 0  0.75 0.21875 0  0.78125 0.21875 0  0.8125 0.21875 0  0.84375 0.21875 0  0.875 0.21875 0  0.90625 0.21875 0  0.9375 0.21875 0  0.96875 0.21875 0  1 0.21875 0  0 0.25 0  0.03125 0.25 0  0.0625 0.25 0  0.09375 0.25 0  0.125 0.25 0  0.15625 0.25 0  0.1875 0.25 0  0.21875 0.25 0  0.25 0.25 0  0.28125 0.25 0  0.3125 0.25 0  0.34375 0.25 0  0.375 0.25 0  0.40625 0.25 0  0.4375 0.25 0  0.46875 0.25 0  0.5 0.25 0  0.53125 0.25 0  0.5625 0.25 0  0.59375 0.25 0  0.625 0.25 0  0.65625 0.25 0  0.6875 0.25 0  0.71875 0.25 0  0.75 0.25 0  0.78125 0.25 0  0.8125 0.25 0  0.84375 0.25 0  0.875 0.25 0  0.90625 0.25 0  0.9375 0.25 0  0.96875 0.25 0  1 0.25 0  0 0.28125 0  0.03125 0.28125 0  0.0625 0.28125 0  0.09375 0.28125 0  0.125 0.28125 0  0.15625 0.28125 0  0.1875 0.28125 0  0.21875 0.28125 0  0.25 0.28125 0  0.28125 0.28125 0  0.3125 0.28125 0  0.34375 0.28125 0  0.375 0.28125 0  0.40625 0.28125 0  0.4375 0.28125 0  0.46875 0.28125 0  0.5 0.28125 0  0.53125 0.28125 0  0.5625 0.28125 0  0.59375 0.28125 0  0.625 0.28125 0  0.65625 0.28125 0  0.6875 0.28125 0  0.71875 0.28125 0  0.75 0.28125 0  0.78125 0.28125 0  0.8125 0.28125 0  0.84375 0.28125 0  0.875 0.28125 0  0.90625 0.28125 0  0.9375 0.28125 0  0.96875 0.28125 0  1 0.28125 0  0 0.3125 0  0.03125 0.3125 0  0.0625 0.3125 0  0.09375 0.3125 0  0.125 0.3125 0  0.15625 0.3125 0  0.1875 0.3125 0  0.21875 0.3125 0  0.25 0.3125 0  0.28125 0.3125 0  0.3125 0.3125 0  0.34375 0.3125 0  0.375 0.3125 0  0.40625 0.3125 0  0.4375 0.3125 0  0.46875 0.3125 0  0.5 0.3125 0  0.53125 0.3125 0  0.5625 0.3125 0  0.59375 0.3125 0  0.625 0.3125 0  0.65625 0.3125 0  0.6875 0.3125 0  0.71875 0.3125 0  0.75 0.3125 0  0.78125 0.3125 0  0.8125 0.3125 0  0.84375 0.3125 0  0.875 0.3125 0  0.90625 0.3125 0  0.9375 0.3125 0  0.96875 0.3125 0  1 0.3125 0  0 0.34375 0  0.03125 0.34375 0  0.0625 0.34375 0  0.09375 0.34375 0  0.125 0.34375 0  0.15625 0.34375 0  0.1875 0.34375 0  0.21875 0.34375 0  0.25 0.34375 0  0.28125 0.34375 0  0.3125 0.34375 0  0.34375 0.34375 0  0.375 0.34375 0  0.40625 0.34375 0  0.4375 0.34375 0  0.46875 0.34375 0  0.5 0.34375 0  0.53125 0.34375 0  0.5625 0.34375 0  0.59375 0.34375 0  0.625 0.34375 0  0.65625 0.34375 0  0.6875 0.34375 0  0.71875 0.34375 0  0.75 0.34375 0  0.78125 0.34375 0  0.8125 0.34375 0  0.84375 0.34375 0  0.875 0.34375 0  0.90625 0.34375 0  0.9375 0.34375 0  0.96875 0.34375 0  1 0.34375 0  0 0.375 0  0.03125 0.375 0  0.0625 0.375 0  0.09375 0.375 0  0.125 0.375 0  0.15625 0.375 0  0.1875 0.375 0  0.21875 0.375 0  0.25 0.375 0  0.28125 0.375 0  0.3125 0.375 0  0.34375 0.375 0  0.375 0.375 0  0.40625 0.375 0  0.4375 0.375 0  0.46875 0.375 0  0.5 0.375 0  0.53125 0.375 0  0.5625 0.375 0  0.59375 0.375 0  0.625 0.375 0  0.65625 0.375 0  0.6875 0.375 0  0.71875 0.375 0  0.75 0.375 0  0.78125 0.375 0  0.8125 0.375 0  0.84375 0.375 0  0.875 0.375 0  0.90625 0.375 0  0.9375 0.375 0  0.96875 0.375 0  1 0.375 0  0 0.40625 0  0.03125 0.40625 0  0.0625 0.40625 0  0.09375 0.40625 0  0.125 0.40625 0  0.15625 0.40625 0  0.1875 0.40625 0  0.21875 0.40625 0  0.25 0.40625 0  0.28125 0.40625 0  0.3125 0.40625 0  0.34375 0.40625 0  0.375 0.40625 0  0.40625 0.40625 0  0.4375 0.40625 0  0.46875 0.40625 0  0.5 0.40625 0  0.53125 0.40625 0  0.5625 0.40625 0  0.59375 0.40625 0  0.625 0.40625 0  0.65625 0.40625 0  0.6875 0.40625 0  0.71875 0.40625 0  0.75 0.40625 0  0.78125 0.40625 0  0.8125 0.40625 0  0.84375 0.40625 0  0.875 0.40625 0  0.90625 0.40625 0  0.9375 0.40625 0  0.96875 0.40625 0  1 0.40625 0  0 0.4375 0  0.03125 0.4375 0  0.0625 0.4375 0  0.09375 0.4375 0  0.125 0.4375 0  0.15625 0.4375 0  0.1875 0.4375 0  0.21875 0.4375 0  0.25 0.4375 0  0.28125 0.4375 0  0.3125 0.4375 0  0.34375 0.4375 0  0.375 0.4375 0  0.40625 0.4375 0  0.4375 0.4375 0  0.46875 0.4375 0  0.5 0.4375 0  0.53125 0.4375 0  0.5625 0.4375 0  0.59375 0.4375 0  0.625 0.4375 0  0.65625 0.4375 0  0.6875 0.4375 0  0.71875 0.4375 0  0.75 0.4375 0  0.78125 0.4375 0  0.8125 0.4375 0  0.84375 0.4375 0  0.875 0.4375 0  0.90625 0.4375 0  0.9375 0.4375 0  0.96875 0.4375 0  1 0.4375 0  0 0.46875 0  0.03125 0.46875 0  0.0625 0.46875 0  0.09375 0.46875 0  0.125 0.46875 0  0.15625 0.46875 0  0.1875 0.46875 0  0.21875 0.46875 0  0.25 0.46875 0  0.28125 0.46875 0  0.3125 0.46875 0  0.34375 0.46875 0  0.375 0.46875 0  0.40625 0.46875 0  0.4375 0.46875 0  0.46875 0.46875 0  0.5 0.46875 0  0.53125 0.46875 0  0.5625 0.46875 0  0.59375 0.46875 0  0.625 0.46875 0  0.65625 0.46875 0  0.6875 0.46875 0  0.71875 0.46875 0  0.75 0.46875 0  0.78125 0.46875 0  0.8125 0.46875 0  0.84375 0.46875 0  0.875 0.46875 0  0.90625 0.46875 0  0.9375 0.46875 0  0.96875 0.46875 0  1 0.46875 0  0 0.5 0  0.03125 0.5 0  0.0625 0.5 0  0.09375 0.5 0  0.125 0.5 0  0.15625 0.5 0  0.1875 0.5 0  0.21875 0.5 0  0.25 0.5 0  0.28125 0.5 0  0.3125 0.5 0  0.34375 0.5 0  0.375 0.5 0  0.40625 0.5 0  0.4375 0.5 0  0.46875 0.5 0  0.5 0.5 0  0.53125 0.5 0  0.5625 0.5 0  0.59375 0.5 0  0.625 0.5 0  0.65625 0.5 0  0.6875 0.5 0  0.71875 0.5 0  0.75 0.5 0  0.78125 0.5 0  0.8125 0.5 0  0.84375 0.5 0  0.875 0.5 0  0.90625 0.5 0  0.9375 0.5 0  0.96875 0.5 0  1 0.5 0  0 0.53125 0  0.03125 0.53125 0  0.0625 0.53125 0  0.09375 0.53125 0  0.125 0.53125 0  0.15625 0.53125 0  0.1875 0.53125 0  0.21875 0.53125 0  0.25 0.53125 0  0.28125 0.53125 0  0.3125 0.53125 0  0.34375 0.53125 0  0.375 0.53125 0  0.40625 0.53125 0  0.4375 0.53125 0  0.46875 0.53125 0  0.5 0.53125 0  0.53125 0.53125 0  0.5625 0.53125 0  0.59375 0.53125 0  0.625 0.53125 0  0.65625 0.53125 0  0.6875 0.53125 0  0.71875 0.53125 0  0.75 0.53125 0  0.78125 0.531
[...]
<PointData  Scalars="u_sol"> 
<DataArray  type="Float64"  Name="u_sol"  format="ascii">-4.8308721193513416e-05  -1.9630545335725457e-05  6.6684701817455803e-04  1.2752001202138655e-03  1.5291403234725864e-03  1.8132430632015395e-03  2.4833374550365323e-03  3.4286322254158045e-03  5.0905941908282598e-03  8.4634641985561684e-03  1.2209659625258350e-02  1.3649661092896635e-02  1.1347036060618407e-02  5.4146096420877874e-03  -2.7862059070124941e-03  -1.1077208867976383e-02  -1.7271767679207330e-02  -1.9863855870894263e-02  -1.7504749640913843e-02  -9.9659575573014143e-03  1.2188529866713155e-03  1.3033414363753899e-02  2.1940940530035691e-02  2.5564586825119379e-02  2.3485299434224369e-02  1.7148570443404072e-02  9.5040587976745784e-03  3.8762714980766525e-03  1.0093886836714879e-03  -4.8198488198714482e-05  -3.1069210718881506e-04  -3.0305177401674028e-04  1.3895636173542502e-05  -4.7872836288994291e-04  2.3986802760784113e-03  8.4109185846732611e-03  1.3196170166788717e-02  1.4876445777297125e-02  1.4291781593942609e-02  1.2332116110978191e-02  7.9064358771270271e-03  -2.5228620398224442e-03  -2.3178708280494165e-02  -5.5851892438528818e-02  -9.8123374584820289e-02  -1.4414573539505743e-01  -1.8705909941821705e-01  -2.2105464777732547e-01  -2.4224964263405244e-01  -2.4839698425221546e-01  -2.3839006752473341e-01  -2.1265209725734432e-01  -1.7282673974026347e-01  -1.2234254515871598e-01  -6.6977856132977159e-02  -1.4406902780083563e-02  2.7729659436014933e-02  5.4682271482885646e-02  6.5378428666375360e-02  6.1472397913694792e-02  4.7662681155428786e-02  3.1277555560679071e-02  1.7487554684004720e-02  7.8208489787410362e-03  1.8345934346411640e-03  -3.6461551566817330e-04  -7.6214502120093726e-04  3.8827142959550359e-03  1.1317461310664368e-02  1.4985018425085758e-02  1.3344483626986101e-02  6.8950785191979596e-03  -6.5822068500102420e-03  -3.2874500918862050e-02  -7.6276746557139605e-02  -1.3484948486877318e-01  -1.9949964408056758e-01  -2.5961612454167188e-01  -3.0862644478177592e-01  -3.4445299582897942e-01  -3.6770603516586209e-01  -3.7977564316609408e-01  -3.8173263043051375e-01  -3.7375653284914861e-01  -3.5489673491337237e-01  -3.2384735342463333e-01  -2.7945168810310228e-01  -2.2229347829088525e-01  -1.5668638148031822e-01  -9.1375010121494696e-02  -3.6500350318488375e-02  2.6247543998688195e-03  2.6766852125903209e-02  3.6809157120982365e-02  3.3898742373634043e-02  2.3905796517429644e-02  1.2820800939272832e-02  3.7807249334653550e-03  -6.9425299741659769e-04  -9.2222790215451837e-04  4.8053497569047771e-03  1.0965911958412134e-02  8.9742966040057826e-03  -1.0472384864477027e-03  -2.1325531785745096e-02  -5.9321872861745298e-02  -1.1834560957023656e-01  -1.9065789999149960e-01  -2.6219727605735099e-01  -3.2243673683159241e-01  -3.6804007703288316e-01  -4.0039846144994140e-01  -4.2240617411163600e-01  -4.3660903805056861e-01  -4.4472143051152507e-01  -4.4769883507717412e-01  -4.4594298070001731e-01  -4.3916675385769965e-01  -4.2547250339335901e-01  -4.0116777826748240e-01  -3.6116862632132507e-01  -3.0165241814542038e-01  -2.2486423902111546e-01  -1.4279914486758383e-01  -7.3330081444445236e-02  -2.7023869206303383e-02  6.1696272192019631e-06  1.3862628409102360e-02  1.5978410173065553e-02  1.0858147059648614e-02  3.5071377062348328e-03  -6.6786982844467546e-04  -8.4266054155871883e-04  4.7669447919447784e-03  5.4231917375801271e-03  -6.3153821456061526e-03  -3.0342443587896888e-02  -7.3845215612990026e-02  -1.3978517809689209e-01  -2.1677023999890355e-01  -2.8791473489607722e-01  -3.4300817272052136e-01  -3.8052115408672438e-01  -4.0346848789622264e-01  -4.1584934659096562e-01  -4.2126289378738574e-01  -4.2262646476281585e-01  -4.2216552220533549e-01  -4.2146999825405401e-01  -4.2153384413741496e-01  -4.2277748448957125e-01  -4.2500245663541431e-01  -4.2616841536356481e-01  -4.2071421276723714e-01  -3.9867314937881121e-01  -3.4893846737761552e-01  -2.6830990736322152e-01  -1.7094578991991824e-01  -8.5467462951580170e-02  -3.2611821837277753e-02  -7.2010402695934766e-03  3.9600791103889107e-03  5.3052785796311357e-03  1.9510614058567545e-03  -3.9355984913333421e-04  -2.3793593158509923e-04  2.1682908352311952e-03  -6.9772306067571394e-03  -3.1714038777611926e-02  -7.5161264016655696e-02  -1.4105926996175044e-01  -2.1767389131655610e-01  -2.8606544676095935e-01  -3.3509359302787467e-01  -3.6389546738595163e-01  -3.7691475264032087e-01  -3.7986441369053520e-01  -3.7791408878198457e-01  -3.7470281807312483e-01  -3.7203232616670584e-01  -3.7030761914747257e-01  -3.6934126726343225e-01  -3.6907044801514449e-01  -3.7001645866546168e-01  -3.7332051337483335e-01  -3.8044046024854428e-01  -3.9166035770093771e-01  -4.0260915530620567e-01  -4.0034974158149061e-01  -3.6561582534046733e-01  -2.8694734835488850e-01  -1.7876181306459940e-01  -8.1066860514654962e-02  -2.5708488386052934e-02  -5.0603429309402622e-03  1.2354851028700876e-03  8.9473281574059896e-04  -2.0226706687855031e-04  9.5451261957655578e-04  -3.7293288079432085e-03  -2.5315888534908564e-02  -6.5329481917146132e-02  -1.2628764987050486e-01  -1.9966078681249022e-01  -2.6564551992163465e-01  -3.1083285875091665e-01  -3.3395176380320785e-01  -3.4078416382665933e-01  -3.3904129406105216e-01  -3.3528490114954113e-01  -3.3302496766004785e-01  -3.3278658998032024e-01  -3.3363120913641986e-01  -3.3455142180398745e-01  -3.3500918218291864e-01  -3.3488453717240979e-01  -3.3428829464063137e-01  -3.3365715651992151e-01  -3.3422452829180466e-01  -3.3861547180263812e-01  -3.5024094512801157e-01  -3.6853509424298181e-01  -3.8021205054889112e-01  -3.5810558153499888e-01  -2.8147308872278126e-01  -1.6562533085929743e-01  -6.3266148052756307e-02  -1.3670794466090735e-02  -4.8867500048606479e-04  8.3296899629836793e-04  -1.5348281143230105e-04  2.3471406509319543e-03  -1.1876348058997338e-02  -4.6664261264041454e-02  -1.0003725747425647e-01  -1.6780686393876892e-01  -2.3236684402666127e-01  -2.7722379251085127e-01  -2.9889778016037449e-01  -3.0361948998299959e-01  -3.0074520292265161e-01  -2.9786622194451978e-01  -2.9796439174498951e-01  -3.0026732704664827e-01  -3.0309221674471376e-01  -3.0549205716141808e-01  -3.0727878078901322e-01  -3.0854525053068638e-01  -3.0939594379459795e-01  -3.0986655548345354e-01  -3.0982120980963845e-01  -3.0896493779299655e-01  -3.0738913442306914e-01  -3.0727872939555934e-01  -3.1444226251759916e-01  -3.3336205354719972e-01  -3.5200902244800264e-01  -3.3545851538209187e-01  -2.5528315935711876e-01  -1.3318115499267263e-01  -3.6995741612089857e-02  -3.0146970509971932e-03  1.8057338762025401e-03  -2.9190089360174538e-04  3.5773643302817368e-03  -2.0295754019020024e-02  -6.6271867043716404e-02  -1.2616863650077165e-01  -1.8904888278485332e-01  -2.3664491078099290e-01  -2.6108356113670511e-01  -2.6709514375104898e-01  -2.6487315577672299e-01  -2.6309280662859258e-01  -2.6469361951158266e-01  -2.6811737653719653e-01  -2.7137749951511442e-01  -2.7383354748310773e-01  -2.7564856050083636e-01  -2.7708630776493776e-01  -2.7833343325508009e-01  -2.7951997710061843e-01  -2.8074748359087598e-01  -2.8210510351709517e-01  -2.8347735544283781e-01  -2.8417437570343929e-01  -2.8294231503638084e-01  -2.8036401025369639e-01  -2.8347962305532420e-01  -3.0151302495578225e-01  -3.2235419792755976e-01  -3.0205479563022530e-01  -2.1014305887408546e-01  -8.6231869608944786e-02  -1.1604709123949805e-02  1.1262568967615554e-03  -3.2177659755616836e-04  4.4539663747832949e-03  -2.6856410728844541e-02  -7.9232892703846161e-02  -1.3776119428303896e-01  -1.8904211655501652e-01  -2.1975201225409977e-01  -2.3028901249462352e-01  -2.3008339226147403e-01  -2.2904237587674028e-01  -2.3121476269506530e-01  -2.3505398257164342e-01  -2.3839827068181260e-01  -2.4083479185340886e-01  -2.4277203037202300e-01  -2.4451294910294963e-01  -2.4614753989617563e-01  -2.4767616507877438e-01  -2.4910283500053196e-01  -2.5047651799628073e-01  -2.5188967036940563e-01  -2.5352709158379433e-01  -2.5557084427887067e-01  -2.5751812432978782e-01  -2.5724050144264959e-01  -2.5364714072057898e-01  -2.5493731366125860e-01  -2.7375349825038220e-01  -2.9242635105405768e-01  -2.5662052031400229e-01  -1.4718865220236518e-01  -3.5617626605003706e-02  -2.4972894998503904e-04  -1.0578536927712269e-04  4.8990794574347105e-03  -2.9946322993980951e-02  -8.3007360344483500e-02  -1.3466739667591396e-01  -1.7309452654403759e-01  -1.9129321374722985e-01  -1.9518036218019200e-01  -1.9506941241833442e-01  -1.9723074207440788e-01  -2.0128787192615921e-01  -2.0490707582156698e-01  -2.0757364485119897e-01  -2.0982703360900937e-01  -2.1198586624001903e-01  -2.1406365247493064e-01  -2.1601067729172782e-01  -2.1782333863257894e-01  -2.1953497470040562e-01  -2.2117400450336538e-01  -2.2274603304071752e-01  -2.2424240105420523e-01  -2.2578507836113118e-01  -2.2780989850776248e-01  -2.3020023835326492e-01  -2.3018031847595710e-01  -2.2576653087426202e-01  -2.2805707582335960e-01  -2.4980423563533130e-01  -2.5813103791711256e-01  -1.9355599580278443e-01  -7.3288908506250472e-02  -1.0796523496443857e-03  5.0954154657601922e-04  4.8981293446461443e-03  -2.9049134277397741e-02  -7.8048764808589632e-02  -1.2047213596263961e-01  -1.4798176714813635e-01  -1.5874028821217409e-01  -1.6098597879261856e-01  -1.6300689594268206e-01  -1.6705234735542251e-01  -1.7114574985146924e-01  -1.7423907845334041e-01  -1.7682673186796610e-01  -1.7930841635481898e-01  -1.8168023065978825e-01  -1.8388745114371849e-01  -1.8595481978562622e-01  -1.8793565798884446e-01  -1.8986774717876118e-01  -1.9177675047041795e-01  -1.9367860951377050e-01  -1.9554880416062900e-01  -1.9725454799380820e-01  -1.9874493944823465e-01  -2.0064248940032151e-01  -2.0306292636681872e-01  -2.0221669147326388e-01  -1.9709755694905975e-01  -2.0429393460773346e-01  -2.2722665880725990e-01  -2.0943234885275469e-01  -1.1012789868170962e-01  -1.0770753653430495e-02  2.8930901552333172e-03  4.5176102147630546e-03  -2.4760599344229698e-02  -6.6596357335911141e-02  -9.9647785145388121e-02  -1.1908543738212743e-01  -1.2621802259011186e-01  -1.2899940053102318e-01  -1.3269334682139944e-01  -1.3716974066585672e-01  -1.4085260387847828e-01  -1.4378769756484747e-01  -1.4650531216067278e-01  -1.4908590893307180e-01  -1.5148176541459865e-01  -1.5373775940742554e-01  -1.5591885495032792e-01  -1.5806025554489789e-01  -1.6018455489969241e-01  -1.6230681062433666e-01  -1.6443163055440635e-01  -1.6656801402317348e-01  -1.6871221416564447e-01  -1.7064417125840484e-01  -1.7213903452037646e-01  -1.7407574997900008e-01  -1.7621411658317443e-01  -1.7329136840675968e-01  -1.6959820557396443e-01  -1.8548275019493546e-01  -1.9676698820980587e-01  -1.3398514884732360e-01  -2.7694452941076027e-02  6.7332774676020215e-03  3.7636345927299750e-03  -1.8171685307210906e-02  -5.1245540189706701e-02  -7.5807295909721933e-02  -8.9621955460894617e-02  -9.5233433029110651e-02  -9.8857709588150752e-02  -1.0321955556255420e-01  -1.0745565099345157e-01  -1.1082232241651059e-01  -1.1372844530174180e-01  -1.1645439773474486e-01  -1.1898765588952571e-01  -1.2136724258468037e-01  -1.2367332599970782e-01  -1.2595150000814304e-01  -1.2823285759441164e-01  -1.3054298619460353e-01  -1.3289617873326398e-01  -1.3528901269867080e-01  -1.3768704849772692e-01  -1.4006929594619028e-01  -1.4246794638190552e-01  -1.4456773309104870e-01  -1.4610708054675725e-01  -1.4834860547011389e-01  -1.4924051866057603e-01  -1.4387970968420474e-01  -1.4758409733193861e-01  -1.6750654623718467e-01  -1.3970029626101640e-01  -4.1973202193576954e-02  1.0015831248477585e-02  2.7425021811956305e-03  -1.0403284885910972e-02  -3.4045310724402818e-02  -5.1219755938923431e-02  -6.1024566252262741e-02  -6.5945974548597963e-02  -6.9988241390682035e-02  -7.4287547500779247e-02  -7.8083239497283602e-02  -8.1192601437702738e-02  -8.3985435673291670e-02  -8.6582611128012230e-02  -8.9007012124867960e-02  -9.1339924044666412e-02  -9.3648208642516079e-02  -9.5975461223518119e-02  -9.8361491857719821e-02  -1.0083573109309928e-01  -1.0341221927616219e-01  -1.0609051902642297e-01  -1.0885417488188352e-01  -1.1162338971544999e-01  -1.1433991780932880e-01  -1.1705169639187532e-01  -1.1925275385480394e-01  -1.2107121872618894e-01  -1.2357551752965779e-01  -1.2133847244815135e-01  -1.1774875629477614e-01  -1.3352634598952492e-01  -1.3021572784735325e-01  -5.0550939223249651e-02  1.1512067927342261e-02  1.4192218614864375e-03  -2.2842567559821603e-03  -1.6293413079854352e-02  -2.6991673464571615e-02  -3.3641865860611062e-02  -3.8022843976047417e-02  -4.1988723014894397e-02  -4.5828609056833725e-02  -4.9114707098524737e-02  -5.1919131726263897e-02  -5.4475409598253602e-02  -5.6853291451373168e-02  -5.9114169661780361e-02  -6.1341037973291650e-02  -6.3596712700806302e-02  -6.5935028865399689e-02  -6.8402245766943301e-02  -7.1029755538054656e-02  -7.3834182458978007e-02  -7.6812147255252913e-02  -7.9943518154413723e-02  -8.3202997745421212e-02  -8.6457530293023263e-02  -8.9658187224826838e-02  -9.2764186598836701e-02  -9.5079069961793647e-02  -9.7746529526779008e-02  -9.8886856654278460e-02  -9.4077821421603328e-02  -1.0221270925383159e-01  -1.1194917305902774e-01  -5.2812573739493537e-02  1.1205939173701012e-02  -2.2355977269924025e-04  5.7866024079043015e-03  1.2925676918273986e-03  -3.4706071315884486e-03  -7.3241383288568792e-03  -1.1063487755438538e-02  -1.4622063775673216e-02  -1.7814904018911826e-02  -2.0533910570611446e-02  -2.2942481297469865e-02  -2.5157155985624936e-02  -2.7237198976222409e-02  -2.9263091007149637e-02  -3.1314981142694695e-02  -3.3461573048859723e-02  -3.5766217426812137e-02  -3.8280645816753785e-02  -4.1043321010557403e-02  -4.4075739762437970e-02  -4.7383103708097868e-02  -5.0940986460370687e-02  -5.4707828735034124e-02  -5.8638167681188229e-02  -6.2534884502190982e-02  -6.6450524171004902e-02  -6.9944769671834023e-02  -7.2900436632519647e-02  -7.6176271322477812e-02  -7.3685916842511384e-02  -7.6052440610520550e-02  -9.0888533808522881e-02  -5.0420565853825788e-02  9.8657743264693315e-03  -1.8061992570810538e-03  1.3296282687077854e-02  1.8494790201050205e-02  1.9244184998196235e-02  1.8317421172812671e-02  1.5308963904295682e-02  1.2332553248173679e-02  9.8479195980799520e-03  7.7626977576412863e-03  5.8324772210318855e-03  4.0453272368281045e-03  2.3390564025356870e-03  6.2349931468737448e-04  -1.1844475071147614e-03  -3.1623828368359239e-03  -5.3831661337724827e-03  -7.9079708128892943e-03  -1.0783385213118998e-02  -1.4040433276157973e-02  -1.7688716569846115e-02  -2.1721677496615837e-02  -2.6088558349979259e-02  -3.0740093955762160e-02  -3.5561948758471566e-02  -4.0380376208116575e-02  -4.5219411614282758e-02  -4.9247090485377544e-02  -5.3793566705781837e-02  -5.4791749968287083e-02  -5.4806432326829392e-02  -7.0746698175562089e-02  -4.5381228083561140e-02  8.1827319944611197e-03  -3.1939441926590721e-03  1.9568459181101748e-02  3.5067977659916927e-02  4.1184402540950911e-02  4.3508927744961089e-02  4.1431348781539971e-02  3.8999738340164243e-02  3.7210404476108488e-02  3.5803113760721011e-02  3.4436303552544512e-02  3.3148633134218661e-02  3.1902524562421000e-02  3.0583839795259856e-02  2.9103743338254887e-02  2.7371321209068333e-02  2.5300518456818671e-02  2.2817399153135503e-02  1.9861949272228931e-02  1.6391379075760455e-02  1.2385438441692034e-02  7.8507736129425874e-03  2.8073986817998635e-03  -2.6659579241938318e-03  -8.5168380460122952e-03  -1.4518993346548074e-02  -2.0710235679801320e-02  -2.6464046734627905e-02  -3.2221427772517693e-02  -3.6677747417346529e-02  -3.7267316579090853e-02  -5.3094902321242685e-02  -3.9381502987082373e-02  6.5700499666480078e-03  -4.4061196046846851e-03  2.4035257744159697e-02  5.0380050321672316e-02  6.2354101173522629e-02  6.8305268633206101e-02  6.7655791765080409e-02  6.5601037868910708e-02  6.4426675561148922e-02  6.3708131343518715e-02  6.2995135736219079e-02  6.2274264897170729e-02  6.1567996222783215e-02  6.0739123136013429e-02  5.9672315854544432e-02  5.8264666686511306e-02  5.6412127278401850e-02  5.4023530390696135e-02  5.1024202449655921e-02  4.7360464754247766e-02  4.2998696828909388e-02  3.7925343446935982e-02  3.2159778254267010e-02  2.5748398501887901e-02  1.8777062710917163e-02  1.1362895220897524e-02  3.6640946574584298e-03  -4.1240331308437916e-03  -1.1562601378058675e-02  -1.9106337343537498e-02  -2.2275264489146851e-02  -3.8192353294106092e-02  -3.3427575224669548e-02  5.1766660054332683e-03  -5.1197053717214796e-03  2.6062551952117714e-02  6.3300476419333535e-02  8.2420085175682889e-02  9.2413241650969868e-02  9.3989371864349233e-02  9.2240259065473965e-02  9.1425498967842272e-02  9.1381637559169698e-02  9.1404730571484197e-02  9.1360420279386637e-02  9.1284680302737439e-02  9.1066087292712872e-02  9.0536547803668960e-02  8.9566567714441034e-02  8.8034080154308816e-02  8.5827487156909354e-02  8.2852765527758776e-02  7.9037447981082004e-02  7.4326654245797291e-02  6.8696988719879851e-02  6.2162202123785065e-02  5.4735800427976787e-02  4.6512729123283539e-02  3.7549787627763960e-02  2.8064337084568954e-02  1.8139780136679124e-02  8.3762904547401013e-03  -1.9400207928359299e-03  -8.9546771799941544e-03  -2.5698858342695533e-02  -2.8014996816685265e-02  4.0472571684430376e-03  -5.2961483412769517e-03  2.5185274338205312e-02  7.2181601439090595e-02  1.0052134770999401e-01  1.1541396820276588e-01  1.2027824456490770e-01  1.1928398814960064e-01  1.1848145275321928e-01  1.1900431468401217e-01  1.1984996690138978e-01  1.2062428124991256e-01  1.2130005023068388e-01  1.2179708769569317e-01  1.2192938482324754e-01  1.2151122547637805e-01  1.2039285980859543e-01  1.1844068412612341e-01  1.1554266113468473e-01  1.1160480530568453e-01  1.0656647610277908e-01  1.0039365395684045e-01  9.3048450074247349e-02  8.4545248122947322e-02  7.4965930407528511e-02  6.4305764611083810e-02  5.2812914882844161e-02  4.0575225324513721e-02  2.8062974080181043e-02  1.4865792894645525e-02  3.4046141936050853e-03  -1.5187781767479468e-02  -2.3277314583291887e-02  3.1547523655592368e-03  -4.5419451555304535e-03  2.1322572928451904e-02  7.5020078385902536e-02  1.1479260494558852e-01  1.3616458187685790e-01  1.4545799950979391e-01  1.4636071647763280e-01  1.4544228294426040e-01  1.4618061502772531e-01  1.4789328749994940e-01  1.4968779285970435e-01  1.5133300934686775e-01  1.5272781875914407e-01  1.5369157281292303e-01  1.5400471699007989e-01  1.5346798691849381e-01  1.5191989990646626e-01  1.4922431189154994e-01  1.4527275305971618e-01  1.3998087865128089e-01  1.3325670770127215e-01  1.2507893230308725e-01  1.1548556640574026e-01  1.0444250182232283e-01  9.1935819407205341e-02  7.8299974932070582e-02  6.3488188310104152e-02  4.7985276109557093e-02  3.1447369082880913e-02  1.5322591024162648e-02  -6.3017086320320409e-03  -1.9213793050797984e-02  2.4619370232015899e-03  -3.6125600792716881e-03  1.5334258592070708e-02  7.0561575392949799e-02  1.2260275487291630e-01  1.5335909419244675e-01  1.6855337210694371e-01  1.7319104941232627e-01  1.7303744034933424e-01  1.7364192448391724e-01  1.7604349187898344e-01  1.7905865092576412e-01  1.8196144611241455e-01  1.8449383296138089e-01  1.8646304645807141e-01  1.8763784446456688e-01  1.8779270004093637e-01  1.8672829061460561e-01  1.8428847212883390e-01  1.8033905530814726e-01  1.7477236065366702e-01  1.6753471263511258e-01  1.5861582111200645e-01  1.4788229318958884e-01  1.3523973448484608e-01  1.2085318144210815e-01  1.0495527246803478e-01  8.7300249682529626e-02  6.8536945892506376e-02  4.8190366610226250e-02  2.6955949719129325e-02  1.2435557214432373e-03  -1.5789064713149059e-02  1.9575597906078160e-03  -1.7251451151149098e-03  9.0964670850956740e-03  5.8695609025427468e-02  1.2038619079881124e-01  1.6338186220848874e-01  1.8672026225547803e-01  1.9704777816154931e-01  1.9973544954419661e-01  2.0069700953231243e-01  2.0337625127799630e-01  2.0756648848406484e-01  2.1205598933809178e-01  2.1613864079842349e-01  2.1946689889853521e-01  2.2179604962692662e-01  2.2289063152618002e-