<?xml version="1.0"?>
<VTKFile type="UnstructuredGrid"  version="0.1"  >
<UnstructuredGrid>
<Piece  NumberOfPoints="1089" NumberOfCells="1024">
<Points>
<DataArray  type="Float64"  NumberOfComponents="3"  format="ascii">0 0 0  0.03125 0 0  0.0625 0 0  0.09375 0 0  0.125 0 0  0.15625 0 0  0.1875 0 0  0.21875 0 0  0.25 0 0  0.28125 0 0  0.3125 0 0  0.34375 0 0  0.375 0 0  0.40625 0 0  0.4375 0 0  0.46875 0 0  0.5 0 0  0.53125 0 0  0.5625 0 0  0.59375 0 0  0.625 0 0  0.65625 0 0  0.6875 0 0  0.71875 0 0  0.75 0 0  0.78125 0 0  0.8125 0 0  0.84375 0 0  0.875 0 0  0.90625 0 0  0.9375 0 0  0.96875 0 0  1 0 0  0 0.03125 0  0.03125 0.03125 0  0.0625 0.03125 0  0.09375 0.03125 0  0.125 0.03125 0  0.15625 0.03125 0  0.1875 0.03125 0  0.21875 0.03125 0  0.25 0.03125 0  0.28125 0.03125 0  0.3125 0.03125 0  0.34375 0.03125 0  0.375 0.03125 0  0.40625 0.03125 0  0.4375 0.03125 0  0.46875 0.03125 0  0.5 0.03125 0  0.53125 0.03125 0  0.5625 0.03125 0  0.59375 0.03125 0  0.625 0.03125 0  0.65625 0.03125 0  0.6875 0.03125 0  0.71875 0.03125 0  0.75 0.03125 0  0.78125 0.03125 0  0.8125 0.03125 0  0.84375 0.03125 0  0.875 0.03125 0  0.90625 0.03125 0  0.9375 0.03125 0  0.96875 0.03125 0  1 0.03125 0  0 0.0625 0  0.03125 0.0625 0  0.0625 0.0625 0  0.09375 0.0625 0  0.125 0.0625 0  0.15625 0.0625 0  0.1875 0.0625 0  0.21875 0.0625 0  0.25 0.0625 0  0.28125 0.0625 0  0.3125 0.0625 0  0.34375 0.0625 0  0.375 0.0625 0  0.40625 0.0625 0  0.4375 0.0625 0  0.46875 0.0625 0  0.5 0.0625 0  0.53125 0.0625 0  0.5625 0.0625 0  0.59375 0.0625 0  0.625 0.0625 0  0.65625 0.0625 0  0.6875 0.0625 0  0.71875 0.0625 0  0.75 0.0625 0  0.78125 0.0625 0  0.8125 0.0625 0  0.84375 0.0625 0  0.875 0.0625 0  0.90625 0.0625 0  0.9375 0.0625 0  0.96875 0.0625 0  1 0.0625 0  0 0.09375 0  0.03125 0.09375 0  0.0625 0.09375 0  0.09375 0.09375 0  0.125 0.09375 0  0.15625 0.09375 0  0.1875 0.09375 0  0.21875 0.09375 0  0.25 0.09375 0  0.28125 0.09375 0  0.3125 0.09375 0  0.34375 0.09375 0  0.375 0.09375 0  0.40625 0.09375 0  0.4375 0.09375 0  0.46875 0.09375 0  0.5 0.09375 0  0.53125 0.09375 0  0.5625 0.09375 0  0.59375 0.09375 0  0.625 0.09375 0  0.65625 0.09375 0  0.6875 0.09375 0  0.71875 0.09375 0  0.75 0.09375 0  0.78125 0.09375 0  0.8125 0.09375 0  0.84375 0.09375 0  0.875 0.09375 0  0.90625 0.09375 0  0.9375 0.09375 0  0.96875 0.09375 0  1 0.09375 0  0 0.125 0  0.03125 0.125 0  0.0625 0.125 0  0.09375 0.125 0  0.125 0.125 0  0.15625 0.125 0  0.1875 0.125 0  0.21875 0.125 0  0.25 0.125 0  0.28125 0.125 0  0.3125 0.125 0  0.34375 0.125 0  0.375 0.125 0  0.40625 0.125 0  0.4375 0.125 0  0.46875 0.125 0  0.5 0.125 0  0.53125 0.125 0  0.5625 0.125 0  0.59375 0.125 0  0.625 0.125 0  0.65625 0.125 0  0.6875 0.125 0  0.71875 0.125 0  0.75 0.125 0  0.78125 0.125 0  0.8125 0.125 0  0.84375 0.125 0  0.875 0.125 0  0.90625 0.125 0  0.9375 0.125 0  0.96875 0.125 0  1 0.125 0  0 0.15625 0  0.03125 0.15625 0  0.0625 0.15625 0  0.09375 0.15625 0  0.125 0.15625 0  0.15625 0.15625 0  0.1875 0.15625 0  0.21875 0.15625 0  0.25 0.15625 0  0.28125 0.15625 0  0.3125 0.15625 0  0.34375 0.15625 0  0.375 0.15625 0  0.40625 0.15625 0  0.4375 0.15625 0  0.46875 0.15625 0  0.5 0.15625 0  0.53125 0.15625 0  0.5625 0.15625 0  0.59375 0.15625 0  0.625 0.15625 0  0.65625 0.15625 0  0.6875 0.15625 0  0.71875 0.15625 0  0.75 0.15625 0  0.78125 0.15625 0  0.8125 0.15625 0  0.84375 0.15625 0  0.875 0.15625 0  0.90625 0.15625 0  0.9375 0.15625 0  0.96875 0.15625 0  1 0.15625 0  0 0.1875 0  0.03125 0.1875 0  0.0625 0.1875 0  0.09375 0.1875 0  0.125 0.1875 0  0.15625 0.1875 0  0.1875 0.1875 0  0.21875 0.1875 0  0.25 0.1875 0  0.28125 0.1875 0  0.3125 0.1875 0  0.34375 0.1875 0  0.375 0.1875 0  0.40625 0.1875 0  0.4375 0.1875 0  0.46875 0.1875 0  0.5 0.1875 0  0.53125 0.1875 0  0.5625 0.1875 0  0.59375 0.1875 0  0.625 0.1875 0  0.65625 0.1875 0  0.6875 0.1875 0  0.71875 0.1875 0  0.75 0.1875 0  0.78125 0.1875 0  0.8125 0.1875 0  0.84375 0.1875 0  0.875 0.1875 0  0.90625 0.1875 0  0.9375 0.1875 0  0.96875 0.1875 0  1 0.1875 0  0 0.21875 0  0.03125 0.21875 0  0.0625 0.21875 0  0.09375 0.21875 0  0.125 0.21875 0  0.15625 0.21875 0  0.1875 0.21875 0  0.21875 0.21875 0  0.25 0.21875 0  0.28125 0.21875 0  0.3125 0.21875 0  0.34375 0.21875 0  0.375 0.21875 0  0.40625 0.21875 0  0.4375 0.21875 0  0.46875 0.21875 0  0.5 0.21875 0  0.53125 0.21875 0  0.5625 0.21875 0  0.59375 0.21875 0  0.625 0.21875 0  0.65625 0.21875 0  0.6875 0.21875 0  0.71875 0.21875 0  0.75 0.21875 0  0.78125 0.21875 0  0.8125 0.21875 0  0.84375 0.21875 0  0.875 0.21875 0  0.90625 0.21875 0  0.9375 0.21875 0  0.96875 0.21875 0  1 0.21875 0  0 0.25 0  0.03125 0.25 0  0.0625 0.25 0  0.09375 0.25 0  0.125 0.25 0  0.15625 0.25 0  0.1875 0.25 0  0.21875 0.25 0  0.25 0.25 0  0.28125 0.25 0  0.3125 0.25 0  0.34375 0.25 0  0.375 0.25 0  0.40625 0.25 0  0.4375 0.25 0  0.46875 0.25 0  0.5 0.25 0  0.53125 0.25 0  0.5625 0.25 0  0.59375 0.25 0  0.625 0.25 0  0.65625 0.25 0  0.6875 0.25 0  0.71875 0.25 0  0.75 0.25 0  0.78125 0.25 0  0.8125 0.25 0  0.84375 0.25 0  0.875 0.25 0  0.90625 0.25 0  0.9375 0.25 0  0.96875 0.25 0  1 0.25 0  0 0.28125 0  0.03125 0.28125 0  0.0625 0.28125 0  0.09375 0.28125 0  0.125 0.28125 0  0.15625 0.28125 0  0.1875 0.28125 0  0.21875 0.28125 0  0.25 0.28125 0  0.28125 0.28125 0  0.3125 0.28125 0  0.34375 0.28125 0  0.375 0.28125 0  0.40625 0.28125 0  0.4375 0.28125 0  0.46875 0.28125 0  0.5 0.28125 0  0.53125 0.28125 0  0.5625 0.28125 0  0.59375 0.28125 0  0.625 0.28125 0  0.65625 0.28125 0  0.6875 0.28125 0  0.71875 0.28125 0  0.75 0.28125 0  0.78125 0.28125 0  0.8125 0.28125 0  0.84375 0.28125 0  0.875 0.28125 0  0.90625 0.28125 0  0.9375 0.28125 0  0.96875 0.28125 0  1 0.28125 0  0 0.3125 0  0.03125 0.3125 0  0.0625 0.3125 0  0.09375 0.3125 0  0.125 0.3125 0  0.15625 0.3125 0  0.1875 0.3125 0  0.21875 0.3125 0  0.25 0.3125 0  0.28125 0.3125 0  0.3125 0.3125 0  0.34375 0.3125 0  0.375 0.3125 0  0.40625 0.3125 0  0.4375 0.3125 0  0.46875 0.3125 0  0.5 0.3125 0  0.53125 0.3125 0  0.5625 0.3125 0  0.59375 0.3125 0  0.625 0.3125 0  0.65625 0.3125 0  0.6875 0.3125 0  0.71875 0.3125 0  0.75 0.3125 0  0.78125 0.3125 0  0.8125 0.3125 0  0.84375 0.3125 0  0.875 0.3125 0  0.90625 0.3125 0  0.9375 0.3125 0  0.96875 0.3125 0  1 0.3125 0  0 0.34375 0  0.03125 0.34375 0  0.0625 0.34375 0  0.09375 0.34375 0  0.125 0.34375 0  0.15625 0.34375 0  0.1875 0.34375 0  0.21875 0.34375 0  0.25 0.34375 0  0.28125 0.34375 0  0.3125 0.34375 0  0.34375 0.34375 0  0.375 0.34375 0  0.40625 0.34375 0  0.4375 0.34375 0  0.46875 0.34375 0  0.5 0.34375 0  0.53125 0.34375 0  0.5625 0.34375 0  0.59375 0.34375 0  0.625 0.34375 0  0.65625 0.34375 0  0.6875 0.34375 0  0.71875 0.34375 0  0.75 0.34375 0  0.78125 0.34375 0  0.8125 0.34375 0  0.84375 0.34375 0  0.875 0.34375 0  0.90625 0.34375 0  0.9375 0.34375 0  0.96875 0.34375 0  1 0.34375 0  0 0.375 0  0.03125 0.375 0  0.0625 0.375 0  0.09375 0.375 0  0.125 0.375 0  0.15625 0.375 0  0.1875 0.375 0  0.21875 0.375 0  0.25 0.375 0  0.28125 0.375 0  0.3125 0.375 0  0.34375 0.375 0  0.375 0.375 0  0.40625 0.375 0  0.4375 0.375 0  0.46875 0.375 0  0.5 0.375 0  0.53125 0.375 0  0.5625 0.375 0  0.59375 0.375 0  0.625 0.375 0  0.65625 0.375 0  0.6875 0.375 0  0.71875 0.375 0  0.75 0.375 0  0.78125 0.375 0  0.8125 0.375 0  0.84375 0.375 0  0.875 0.375 0  0.90625 0.375 0  0.9375 0.375 0  0.96875 0.375 0  1 0.375 0  0 0.40625 0  0.03125 0.40625 0  0.0625 0.40625 0  0.09375 0.40625 0  0.125 0.40625 0  0.15625 0.40625 0  0.1875 0.40625 0  0.21875 0.40625 0  0.25 0.40625 0  0.28125 0.40625 0  0.3125 0.40625 0  0.34375 0.40625 0  0.375 0.40625 0  0.40625 0.40625 0  0.4375 0.40625 0  0.46875 0.40625 0  0.5 0.40625 0  0.53125 0.40625 0  0.5625 0.40625 0  0.59375 0.40625 0  0.625 0.40625 0  0.65625 0.40625 0  0.6875 0.40625 0  0.71875 0.40625 0  0.75 0.40625 0  0.78125 0.40625 0  0.8125 0.40625 0  0.84375 0.40625 0  0.875 0.40625 0  0.90625 0.40625 0  0.9375 0.40625 0  0.96875 0.40625 0  1 0.40625 0  0 0.4375 0  0.03125 0.4375 0  0.0625 0.4375 0  0.09375 0.4375 0  0.125 0.4375 0  0.15625 0.4375 0  0.1875 0.4375 0  0.21875 0.4375 0  0.25 0.4375 0  0.28125 0.4375 0  0.3125 0.4375 0  0.34375 0.4375 0  0.375 0.4375 0  0.40625 0.4375 0  0.4375 0.4375 0  0.46875 0.4375 0  0.5 0.4375 0  0.53125 0.4375 0  0.5625 0.4375 0  0.59375 0.4375 0  0.625 0.4375 0  0.65625 0.4375 0  0.6875 0.4375 0  0.71875 0.4375 0  0.75 0.4375 0  0.78125 0.4375 0  0.8125 0.4375 0  0.84375 0.4375 0  0.875 0.4375 0  0.90625 0.4375 0  0.9375 0.4375 0  0.96875 0.4375 0  1 0.4375 0  0 0.46875 0  0.03125 0.46875 0  0.0625 0.46875 0  0.09375 0.46875 0  0.125 0.46875 0  0.15625 0.46875 0  0.1875 0.46875 0  0.21875 0.46875 0  0.25 0.46875 0  0.28125 0.46875 0  0.3125 0.46875 0  0.34375 0.46875 0  0.375 0.46875 0  0.40625 0.46875 0  0.4375 0.46875 0  0.46875 0.46875 0  0.5 0.46875 0  0.53125 0.46875 0  0.5625 0.46875 0  0.59375 0.46875 0  0.625 0.46875 0  0.65625 0.46875 0  0.6875 0.46875 0  0.71875 0.46875 0  0.75 0.46875 0  0.78125 0.46875 0  0.8125 0.46875 0  0.84375 0.46875 0  0.875 0.46875 0  0.90625 0.46875 0  0.9375 0.46875 0  0.96875 0.46875 0  1 0.46875 0  0 0.5 0  0.03125 0.5 0  0.0625 0.5 0  0.09375 0.5 0  0.125 0.5 0  0.15625 0.5 0  0.1875 0.5 0  0.21875 0.5 0  0.25 0.5 0  0.28125 0.5 0  0.3125 0.5 0  0.34375 0.5 0  0.375 0.5 0  0.40625 0.5 0  0.4375 0.5 0  0.46875 0.5 0  0.5 0.5 0  0.53125 0.5 0  0.5625 0.5 0  0.59375 0.5 0  0.625 0.5 0  0.65625 0.5 0  0.6875 0.5 0  0.71875 0.5 0  0.75 0.5 0  0.78125 0.5 0  0.8125 0.5 0  0.84375 0.5 0  0.875 0.5 0  0.90625 0.5 0  0.9375 0.5 0  0.96875 0.5 0  1 0.5 0  0 0.53125 0  0.03125 0.53125 0  0.0625 0.53125 0  0.09375 0.53125 0  0.125 0.53125 0  0.15625 0.53125 0  0.1875 0.53125 0  0.21875 0.53125 0  0.25 0.53125 0  0.28125 0.53125 0  0.3125 0.53125 0  0.34375 0.53125 0  0.375 0.53125 0  0.40625 0.53125 0  0.4375 0.53125 0  0.46875 0.53125 0  0.5 0.53125 0  0.53125 0.53125 0  0.5625 0.53125 0  0.59375 0.53125 0  0.625 0.53125 0  0.65625 0.53125 0  0.6875 0.53125 0  0.71875 0.53125 0  0.75 0.53125 0  0.78125 0.531
[...]
<PointData  Scalars="v_sol"> 
<DataArray  type="Float64"  Name="v_sol"  format="ascii">3.4063219251428518e-05  4.6941008396441910e-04  5.8839170677807960e-04  3.5266479965654718e-04  8.7846124420690112e-05  -1.9098671396346040e-05  -7.0716141158739447e-05  -3.0047012081009544e-04  -8.2610813876077803e-04  -1.7623033824356643e-03  -3.0917159926612176e-03  -4.3086354659261561e-03  -4.8316355254920873e-03  -4.4355615817438260e-03  -3.2516020256628617e-03  -1.5808973447623590e-03  4.1263721040414033e-04  2.2778249027252113e-03  3.7106094237298816e-03  4.7479158504919730e-03  5.2705212447616287e-03  5.2247553594428290e-03  4.5366008135579528e-03  3.2928762987579872e-03  1.5684483576325337e-03  -4.2125363191256867e-04  -1.7373601624357925e-03  -2.0290088378087309e-03  -1.7009008594851256e-03  -1.1422485783715857e-03  -7.0397410002908929e-04  -3.4273122029183055e-04  -2.6240096109038796e-06  1.0172871042240493e-04  -2.5017919808202004e-03  -3.1956184038798682e-03  -1.7732549006823190e-03  -3.7168201232855552e-04  6.4303751277225879e-05  2.7747669708816255e-04  1.5087124418736808e-03  3.8158406351416168e-03  7.7795310913758853e-03  1.3949695291479160e-02  2.0101814496581539e-02  2.3566264556540106e-02  2.3186469036421509e-02  1.8961389499294743e-02  1.1567126310938782e-02  2.0056437371293004e-03  -8.4742319244287285e-03  -1.8756918103700573e-02  -2.7315407014680274e-02  -3.2123006965511999e-02  -3.1572325590005945e-02  -2.5431096726965193e-02  -1.5556994973399470e-02  -4.6607780055225589e-03  4.9117010786215052e-03  1.0321811415193441e-02  1.0742357056304504e-02  8.4206048827555023e-03  5.5487302392914434e-03  3.4348923873296000e-03  1.6139148442935094e-03  -1.9207440566603972e-04  -4.1133936794441147e-04  -8.9735826359790237e-03  -9.6396540969385033e-03  -4.3341909852797492e-03  1.0213488014625505e-03  4.6630049641328795e-03  9.8128545044098656e-03  2.0249608020442289e-02  3.6481569625668099e-02  5.4563074882695087e-02  6.8458510251334870e-02  7.3953997865111268e-02  7.0146616857570968e-02  5.8570149664994874e-02  4.1544587054666647e-02  2.1080171214507726e-02  -1.4940458131750495e-03  -2.5347182683329857e-02  -4.9203311883728368e-02  -7.0773126188109339e-02  -8.6476778416185104e-02  -9.1896157395614519e-02  -8.3959698564290031e-02  -6.3844478190905343e-02  -3.7830011285103077e-02  -1.3096610528600687e-02  6.8055930717782183e-03  1.8934200912002416e-02  2.1666012734143213e-02  1.8217906169624130e-02  1.3043209437278507e-02  7.7071964551347636e-03  3.0977172594875914e-04  -1.4566611826616553e-03  -1.6974045616483458e-02  -1.4350870816313711e-02  -2.0835255990906288e-03  9.6142368169977975e-03  2.2083053754803957e-02  4.2831717050500540e-02  7.2537124376968881e-02  1.0251469406903845e-01  1.2282910111520642e-01  1.2882221581779560e-01  1.2161651486900463e-01  1.0491929721264447e-01  8.2317270281479574e-02  5.6232880728597466e-02  2.7908798115363311e-02  -2.1700109677441882e-03  -3.3787275564044324e-02  -6.6647798362082469e-02  -9.9594210240163489e-02  -1.2950235151123404e-01  -1.5053519531647563e-01  -1.5498297813589990e-01  -1.3732700288558736e-01  -1.0024165657778719e-01  -5.6404413384744764e-02  -1.9634838384916996e-02  6.2452725618318185e-03  2.1384943700703301e-02  2.5346644441391297e-02  2.2051392564576482e-02  1.5142330531885096e-02  1.1340318859216108e-03  -3.4218909607525503e-03  -2.4402778337508639e-02  -1.3068308823442284e-02  9.3231778193627358e-03  3.2112375739866895e-02  6.3545867959899638e-02  1.0602851092297270e-01  1.4734187509070371e-01  1.7373552929101813e-01  1.8041240398515296e-01  1.7047567523141932e-01  1.4958377288201977e-01  1.2256742237745459e-01  9.2618887758867827e-02  6.1504519785074804e-02  2.9945560305367051e-02  -2.0712809262326622e-03  -3.5055734972729735e-02  -6.9724844284833276e-02  -1.0654661848598022e-01  -1.4497103882331341e-01  -1.8184912854205243e-01  -2.0941768281676612e-01  -2.1551297092009516e-01  -1.8972163283456780e-01  -1.3445231490880705e-01  -7.0075067164956387e-02  -2.0623030194665048e-02  8.7249703043563911e-03  2.3452952255019172e-02  2.6497248709238495e-02  2.0499106677444173e-02  1.6670408354081143e-03  -6.3566207425992342e-03  -2.7211217377517482e-02  -1.7449207727450796e-03  3.3987253526580677e-02  7.5928822459762194e-02  1.2999444882961347e-01  1.8300203909835377e-01  2.1690048871681969e-01  2.2545053341134016e-01  2.1327315345603454e-01  1.8823236107868743e-01  1.5701190239790186e-01  1.2398924157499845e-01  9.1337658620627177e-02  5.9605176624046567e-02  2.8466641261173431e-02  -2.6723952905696961e-03  -3.4354221453490520e-02  -6.7050592972933670e-02  -1.0141078760925994e-01  -1.3841814388990734e-01  -1.7891482768135603e-01  -2.2130674838243120e-01  -2.5705047330165726e-01  -2.6841435313893963e-01  -2.3693570151652588e-01  -1.6274106779911970e-01  -7.6102211523330271e-02  -1.4953339052827499e-02  1.4978178606309636e-02  2.6366434018154476e-02  2.2990205503149026e-02  1.8895458909954637e-03  -9.0855693296606945e-03  -2.0677152412818759e-02  2.2038728420240301e-02  7.5713032431782373e-02  1.3970211947964051e-01  2.0535835687181916e-01  2.5005895335423173e-01  2.6356675302295801e-01  2.5096717352139075e-01  2.2287438911994553e-01  1.8862899868524630e-01  1.5402411734560059e-01  1.2115774545159116e-01  8.9787693808501864e-02  5.9011957385994421e-02  2.8174401253586581e-02  -3.0181980140213623e-03  -3.4673088861516412e-02  -6.6777298373807761e-02  -9.9275316756349041e-02  -1.3236432347793303e-01  -1.6720817271915098e-01  -2.0651774811209977e-01  -2.5200372365202517e-01  -2.9581582710634713e-01  -3.1323380817509211e-01  -2.7452708127151354e-01  -1.7771174914355614e-01  -6.8851311646094898e-02  -1.9354738918989775e-03  2.2778632694615185e-02  2.4247190303379455e-02  2.0856302445350717e-03  -9.5650740457822181e-03  -1.6605624714674519e-03  5.9361041559859148e-02  1.3294118674348224e-01  2.1080752054444296e-01  2.7084511326481181e-01  2.9472766581305804e-01  2.8549753095059710e-01  2.5643862642307330e-01  2.2049863541587081e-01  1.8539622987200755e-01  1.5306367024934858e-01  1.2229217717443606e-01  9.1728074138531859e-02  6.0814826493283521e-02  2.9464836979750206e-02  -2.3229084729057005e-03  -3.4543088899626130e-02  -6.7184093170044340e-02  -1.0010727496734896e-01  -1.3291344025006951e-01  -1.6509385275982622e-01  -1.9725170565716726e-01  -2.3362340401451365e-01  -2.8045341841312110e-01  -3.3132772050880610e-01  -3.5151459944392566e-01  -2.9733930491037824e-01  -1.7040824661049955e-01  -4.4878542716344574e-02  1.5111786114871411e-02  2.4791497791444371e-02  3.2485615052556603e-03  -6.2183135897249881e-03  3.0482115299247738e-02  1.0836001359639354e-01  1.9735101292567483e-01  2.7516012086061559e-01  3.1705746977291088e-01  3.1732291231033094e-01  2.9048747560277005e-01  2.5378582062195232e-01  2.1826234418223620e-01  1.8634557436710963e-01  1.5596092380172977e-01  1.2535038020757855e-01  9.4186650926797205e-02  6.2648580055528730e-02  3.0854742636063647e-02  -1.1948838906060263e-03  -3.3558440272168422e-02  -6.6299484351184365e-02  -9.9459260697010249e-02  -1.3298245237209116e-01  -1.6641525917329841e-01  -1.9854277800797232e-01  -2.2876031884252129e-01  -2.6242396680552577e-01  -3.1116956823884134e-01  -3.6825262118852453e-01  -3.8237150292096433e-01  -2.9624715482750841e-01  -1.3231994548559645e-01  -8.6103924072641839e-03  2.5927204628624578e-02  4.3476889439816773e-03  1.2552904270522703e-03  7.3562248371894887e-02  1.6368337847809336e-01  2.5921650597175516e-01  3.2510322943590214e-01  3.4438972360478226e-01  3.2507849720338972e-01  2.8897975778479751e-01  2.5235482293472677e-01  2.2021139657546512e-01  1.8997418514017980e-01  1.5923189153973494e-01  1.2778059102594166e-01  9.6052780614414135e-02  6.4225608302891868e-02  3.2277005018731625e-02  1.3050913720332033e-04  -3.2272289372976298e-02  -6.4954700860063760e-02  -9.7928055535037778e-02  -1.3124791612716691e-01  -1.6505426509362484e-01  -1.9913742508424817e-01  -2.3169028646255402e-01  -2.6059386153984004e-01  -2.9314056788682952e-01  -3.4726530653705828e-01  -4.0822431693021560e-01  -3.9770501761836741e-01  -2.5562217731209957e-01  -6.4561026137593347e-02  2.4456547558618959e-02  4.1217771530241256e-03  1.1672747475312533e-02  1.2301147958146769e-01  2.1889803367063135e-01  3.1218119470871902e-01  3.5992544214542310e-01  3.5831004242590514e-01  3.2636475820167538e-01  2.8818085140161320e-01  2.5455103754655684e-01  2.2419138050497964e-01  1.9342803465099481e-01  1.6176698554065924e-01  1.2988144303992674e-01  9.8015382809360646e-02  6.6095158612422031e-02  3.4024924870264657e-02  1.7529845190002388e-03  -3.0745274837422416e-02  -6.3487912712041294e-02  -9.6469816381408557e-02  -1.2964613683894666e-01  -1.6302258604202230e-01  -1.9696033481001357e-01  -2.3166970438311862e-01  -2.6453189333346799e-01  -2.9197295075460383e-01  -3.2677698427051716e-01  -3.9202689360407056e-01  -4.4599037131351621e-01  -3.7620326062460430e-01  -1.6044319181808547e-01  8.4213008147307426e-03  1.0221005864458180e-02  2.2804517247756256e-02  1.7333578476237080e-01  2.6901257178753124e-01  3.5414405803456395e-01  3.8276956480040975e-01  3.6503829492323397e-01  3.2691480195105005e-01  2.9018002128691101e-01  2.5868713673474586e-01  2.2805596999168051e-01  1.9627896135844514e-01  1.6418667071015286e-01  1.3220990064622781e-01  1.0024607007184140e-01  6.8178067045666715e-02  3.5974003977306913e-02  3.6112369411648343e-03  -2.8943103617013122e-02  -6.1720499379560513e-02  -9.4746998559300327e-02  -1.2803355600296507e-01  -1.6149620510844329e-01  -1.9502043556832852e-01  -2.2923188657603077e-01  -2.6474109856189443e-01  -2.9708503539604098e-01  -3.2285173423527841e-01  -3.6777274580371211e-01  -4.4667748094077431e-01  -4.5987800524288375e-01  -2.8154196855581370e-01  -3.2753366533795500e-02  2.4537492849476532e-02  3.2221791739572125e-02  2.1959673437114208e-01  3.1136106925250090e-01  3.8576134679303925e-01  3.9769294297526864e-01  3.6908231239697931e-01  3.2894963358330981e-01  2.9409500774721131e-01  2.6306147342731201e-01  2.3141802238351802e-01  1.9901803583245248e-01  1.6678909449097168e-01  1.3468885054906737e-01  1.0255047259530892e-01  7.0345466347167096e-02  3.8060166367581215e-02  5.6513480850787518e-03  -2.6925361995448385e-02  -5.9709011223953834e-02  -9.2729756005738309e-02  -1.2602276241145513e-01  -1.5965428535659545e-01  -1.9352090064069952e-01  -2.2735448003160355e-01  -2.6229885824754051e-01  -2.9876310076845525e-01  -3.2844929580699317e-01  -3.5611195809760543e-01  -4.2486959390374862e-01  -4.9749006998117107e-01  -3.9705687706190673e-01  -1.0208898516288546e-01  3.7624847236233362e-02  3.8141011173035831e-02  2.5815512883834879e-01  3.4509387953324594e-01  4.0879503231869124e-01  4.0796191409805788e-01  3.7271159262698356e-01  3.3242816774254486e-01  2.9862900934866893e-01  2.6707048676785217e-01  2.3452882720287199e-01  2.0182150675883337e-01  1.6944833730718445e-01  1.3715685614014317e-01  1.0487406875125044e-01  7.2597537824135791e-02  4.0280122139453201e-02  7.8653578018278349e-03  -2.4697520293741369e-02  -5.7460292069115390e-02  -9.0473769214430136e-02  -1.2377027029034390e-01  -1.5738575665491208e-01  -1.9147634381261822e-01  -2.2586234655700399e-01  -2.6023490044787445e-01  -2.9680272760414306e-01  -3.3308762847777035e-01  -3.5771370780552147e-01  -4.0359009110680277e-01  -4.9933832994260557e-01  -4.8637635748765812e-01  -1.9244282012723718e-01  4.4449062190618831e-02  3.9762944319365105e-02  2.8665112508899243e-01  3.7044538380497194e-01  4.2495570945776057e-01  4.1561370117771468e-01  3.7655618635327093e-01  3.3659856429894180e-01  3.0300367596679256e-01  2.7066962541286138e-01  2.3750557440213113e-01  2.0458689502602381e-01  1.7202066069477356e-01  1.3956384285445689e-01  1.0720113138984293e-01  7.4900867090222811e-02  4.2595343983387872e-02  1.0226004531124986e-02  -2.2269944574873204e-02  -5.4958421327310346e-02  -8.7906041979292290e-02  -1.2119092335146880e-01  -1.5484764343398233e-01  -1.8891924832479792e-01  -2.2368728633668314e-01  -2.5866114285132463e-01  -2.9420704323987934e-01  -3.3332116064367456e-01  -3.6428651040568993e-01  -3.9292824178694558e-01  -4.8310712528606031e-01  -5.4327085090967886e-01  -2.9084773555131516e-01  4.2867112600984650e-02  3.7101856076090844e-02  3.0381019399521664e-01  3.8792077911727058e-01  4.3556721035681956e-01  4.2159578123961960e-01  3.8051485610320462e-01  3.4076499660567561e-01  3.0689307557460849e-01  2.7387492788579054e-01  2.4029193281762251e-01  2.0717460423334808e-01  1.7442846439626417e-01  1.4186703630559630e-01  1.0947833833024255e-01  7.7204070359428445e-02  4.4971472673775645e-02  1.2712855605450327e-02  -1.9649723195203306e-02  -5.2199069077291209e-02  -8.5019149039075689e-02  -1.1819281048869755e-01  -1.5184349769610755e-01  -1.8598114776305466e-01  -2.2074406810237232e-01  -2.5645364484588612e-01  -2.9206647100676131e-01  -3.3069856535687742e-01  -3.6912024711351349e-01  -3.9210011564414715e-01  -4.6306804583242417e-01  -5.7186420349418343e-01  -3.8488165959174175e-01  3.2521789200703317e-02  3.1045803955659104e-02  3.0872633312558323e-01  3.9821807407562859e-01  4.4131039981236420e-01  4.2627579484008160e-01  3.8426316879139188e-01  3.4451716528274595e-01  3.1015515916678010e-01  2.7665282834334320e-01  2.4277665576677088e-01  2.0948208016513378e-01  1.7660613644107684e-01  1.4400291742837051e-01  1.1164398556567071e-01  7.9460939856268162e-02  4.7374267819776210e-02  1.5303741328097944e-02  -1.6844175759444361e-02  -4.9166601805783465e-02  -8.1772746430324630e-02  -1.1476788368190285e-01  -1.4826072242844707e-01  -1.8243197897124674e-01  -2.1719896883481496e-01  -2.5309392695976107e-01  -2.8969108358302392e-01  -3.2716913375446266e-01  -3.6987946756641882e-01  -3.9618704955531148e-01  -4.4630112231641961e-01  -5.8026374153213511e-01  -4.6682949439086829e-01  1.5131095550279323e-02  2.2352301804439936e-02  3.0120315216122684e-01  4.0169015773860767e-01  4.4254289547202863e-01  4.2961632739823680e-01  3.8760387995864815e-01  3.4763492730923717e-01  3.1273582588181498e-01  2.7892453441623771e-01  2.4486199093991631e-01  2.1142177678837090e-01  1.7847982379481897e-01  1.4589644593427420e-01  1.1363357320948231e-01  8.1617454928381017e-02  4.9761018782903177e-02  1.7969822458478231e-02  -1.3863150410671843e-02  -4.5856823961409901e-02  -7.8130579645668150e-02  -1.1083446922933665e-01  -1.4408030924031109e-01  -1.7806588374886462e-01  -2.1290917959716632e-01  -2.4863378717322446e-01  -2.8611290154588148e-01  -3.2333856237215292e-01  -3.6692917742259062e-01  -4.0059817771396883e-01  -4.3420445778453570e-01  -5.7604667176293634e-01  -5.3387174272286619e-01  -6.5877675015158866e-03  1.1875967282898843e-02  2.8165791599530449e-01  3.9799777550095422e-01  4.3957151085716767e-01  4.3118765801262382e-01  3.9054916132055029e-01  3.5002968660911621e-01  3.1462609960531812e-01  2.8060213075718932e-01  2.4647327433049693e-01  2.1291422352224934e-01  1.7997085371668814e-01  1.4747070204980911e-01  1.1537733773059369e-01  8.3612547908858650e-02  5.2081722640214434e-02  2.0676168015100586e-02  -1.0726362818826392e-02  -4.2260054725923375e-02  -7.4077661522197885e-02  -1.0632718418920842e-01  -1.3920771870939491e-01  -1.7282477536640417e-01  -2.0756947358910094e-01  -2.4311785287301044e-01  -2.8082276577303045e-01  -3.1877025166570577e-01  -3.6124333220641247e-01  -4.0254638361548190e-01  -4.2538714407145317e-01  -5.6441094077226928e-01  -5.8638789551511350e-01  -3.0113909613273301e-02  1.2107440098008638e-03  2.5084868184970971e-01  3.8619772555906268e-01  4.3251946399699187e-01  4.3039529431966034e-01  3.9307510891105629e-01  3.5183520034702104e-01  3.1581752230907562e-01  2.8162370005364945e-01  2.4752182615932178e-01  2.1389085230384169e-01  1.8098240161776227e-01  1.4863661852292329e-01  1.1678867561664863e-01  8.5369474694363387e-02  5.4272556322952255e-02  2.3377026761601052e-02  -7.4577937829248672e-03  -3.8385008296324831e-02  -6.9583849596804484e-02  -1.0121936788865706e-01  -1.3352715098005100e-01  -1.6664656714561307e-01  -2.0096855176525921e-01  -2.3637208853690983e-01  -2.7367775586765458e-01  -3.1271934489317249e-01  -3.5343485642031192e-01  -4.0077393830613922e-01  -4.1768082635460585e-01  -5.4831173607184913e-01  -6.2614610548939820e-01  -5.3705119920551769e-02  -7.9118810233661033e-03  2.1045079872525677e-01  3.6484735550935787e-01  4.2106853318089110e-01  4.2655493782001813e-01  3.9488830865396840e-01  3.5336065734680822e-01  3.1634560715131727e-01  2.8194614273585594e-01  2.4790763570215815e-01  2.1428096699649574e-01  1.8142167576385296e-01  1.4929075595408067e-01  1.1777590623493683e-01  8.6803224388166997e-02  5.6262463843574126e-02  2.6015085416584670e-02  -4.0968148303589273e-03  -3.4252502445131137e-02  -6.4636628760337628e-02  -9.5473009342638263e-02  -1.2697442893658389e-01  -1.5940897916857075e-01  -1.9300553486345651e-01  -2.2809621742790367e-01  -2.6465566136513974e-01  -3.0452179406334301e-01  -3.4362835202139946e-01  -3.9489127612269220e-01  -4.0908511492047811e-01  -5.2912431834116225e-01  -6.5521776477950056e-01  -7.6391435054429482e-02  -1.4087456843934440e-02  1.6366066516712130e-01  3.3218257436210713e-01  4.0423802973046258e-01  4.1898007638824536e-01  3.9523239423344803e-01  3.5491769776436266e-01  3.1641867993168415e-01  2.8151615341796810e-01  2.4751470743465898e-01  2.1395908833332178e-01  1.8118340661506982e-01  1.4929816653356356e-01  1.1820732463684061e-01  8.7798474253023201e-02  5.7951057817914042e-02  2.8510863073384948e-02  -6.9955386492365971e-04  -2.9882051670746465e-02  -5.9244891288730658e-02  -8.9061133018691632e-02  -1.1950434693459230e-01  -1.5099275395758285e-01  -1.8360208451938442e-01  -2.1800800032006157e-01  -2.5368327591605255e-01  -2.9370917216735365e-01  -3.3163858871238133e-01  -3.8479253391985641e-01  -3.9806492330231003e-01  -5.0726918389866682e-01  -6.7553069506509511e-01  -9.7684885435765312e-02  -1.6389986545534408e-02  1.1506294298718182e-01  2.8724240093521936e-01  3.7987697771430928e-01  4.0683468879163232e-01  3.9285330885413638e-01  3.5632756637599766e-01  3.1646101587054026e-01  2.8035762722321200e-01  2.4620471359471491e-01  2.1275233891957612e-01  1.8013073578424293e-01  1.4853635101786183e-01  1.1794701403739316e-01  8.8231813065737089e-02  5.9236652572368056e-02  3.0781906480389989e-02  2.6716903047832828e-03  -2.5328402139234461e-02  -5.3445450464438049e-02  -8.1962076578191004e-02  -1.1107886661109653e-01  -1.4134159098823923e-01  -1.7261427232756121e-01  -2.0595333902289470e-01  -2.4054947195215595e-01  -2.8005184197904298e-01  -3.1703467568512200e-01  -3.7040921140392608e-01  -3.8354093142045925e-01  -4.8252383389370385e-01  -6.8881455854925733e-01  -1.1733245648632795e-01  -1.5010855327380824e-02  7.0366219605476912e-02  2.3103622778906541e-01  3.4507982965307477e-01  3.8875593006234221e-01  3.8628748488880715e-01  3.5651334820475955e-01  3.1679087761064134e-01  2.7875776050366347e-01  2.4383312902309245e-01  2.1039638913652173e-01  1.7800833151773929e-01  1.4680145020241267e-01  1.1681229140319112e-01  8.7925481811756453e-02  5.9958703226889093e-02  3.2694463828677758e-02  5.9101773901632359e-03  -2.0660682888429007e-02  -4.7241948568900377e-02  -7.4186782335154314e-02  -1.0173076105827047e-01  -1.3037284262085441e-01  -1.5990217004405016e-01  -1.9187016215913494e-01  -2.2501285778532040e-01  -2.6336449922468619e-01  -2.9933064784224439e-01  -3.5156403974261952e-01  -3.6457268943921817e-01  -4.5445415605258616e-01  -6.9655269139688958e-01  -1.3521147407419087e-01  -1.0955204697621597e-02  3.4339406071714602e-02  1.6851510233562872e-01  2.9716152354739589e-01  3.6214001703783105e-01  3.7390454764065922e-01  3.5336877646868936e-01  3.1670677765941491e-01  2.7714473831981384e-01  2.4051982711080958e-01  2.0663830703423405e-01  1.7449482430572766e-01  1.4383006820876856e-01  1.1461510176362331e-01  8.6738429595957109e-02  6.0003130702536482e-02  3.4155832267009738e-02  8.9417451145336058e-03  -1.5935359355290477e-02  -4.0738634814387942e-02  -6.5855137622011353e-02  -9.1406835222156771e-02  