<?xml version="1.0"?>
<VTKFile type="UnstructuredGrid"  version="0.1"  >
<UnstructuredGrid>
<Piece  NumberOfPoints="16641" NumberOfCells="16384">
<Points>
<DataArray  type="Float64"  NumberOfComponents="3"  format="ascii">0 0 0  0.0078125 0 0  0.015625 0 0  0.0234375 0 0  0.03125 0 0  0.0390625 0 0  0.046875 0 0  0.0546875 0 0  0.0625 0 0  0.0703125 0 0  0.078125 0 0  0.0859375 0 0  0.09375 0 0  0.1015625 0 0  0.109375 0 0  0.1171875 0 0  0.125 0 0  0.1328125 0 0  0.140625 0 0  0.1484375 0 0  0.15625 0 0  0.1640625 0 0  0.171875 0 0  0.1796875 0 0  0.1875 0 0  0.1953125 0 0  0.203125 0 0  0.2109375 0 0  0.21875 0 0  0.2265625 0 0  0.234375 0 0  0.2421875 0 0  0.25 0 0  0.2578125 0 0  0.265625 0 0  0.2734375 0 0  0.28125 0 0  0.2890625 0 0  0.296875 0 0  0.3046875 0 0  0.3125 0 0  0.3203125 0 0  0.328125 0 0  0.3359375 0 0  0.34375 0 0  0.3515625 0 0  0.359375 0 0  0.3671875 0 0  0.375 0 0  0.3828125 0 0  0.390625 0 0  0.3984375 0 0  0.40625 0 0  0.4140625 0 0  0.421875 0 0  0.4296875 0 0  0.4375 0 0  0.4453125 0 0  0.453125 0 0  0.4609375 0 0  0.46875 0 0  0.4765625 0 0  0.484375 0 0  0.4921875 0 0  0.5 0 0  0.5078125 0 0  0.515625 0 0  0.5234375 0 0  0.53125 0 0  0.5390625 0 0  0.546875 0 0  0.5546875 0 0  0.5625 0 0  0.5703125 0 0  0.578125 0 0  0.5859375 0 0  0.59375 0 0  0.6015625 0 0  0.609375 0 0  0.6171875 0 0  0.625 0 0  0.6328125 0 0  0.640625 0 0  0.6484375 0 0  0.65625 0 0  0.6640625 0 0  0.671875 0 0  0.6796875 0 0  0.6875 0 0  0.6953125 0 0  0.703125 0 0  0.7109375 0 0  0.71875 0 0  0.7265625 0 0  0.734375 0 0  0.7421875 0 0  0.75 0 0  0.7578125 0 0  0.765625 0 0  0.7734375 0 0  0.78125 0 0  0.7890625 0 0  0.796875 0 0  0.8046875 0 0  0.8125 0 0  0.8203125 0 0  0.828125 0 0  0.8359375 0 0  0.84375 0 0  0.8515625 0 0  0.859375 0 0  0.8671875 0 0  0.875 0 0  0.8828125 0 0  0.890625 0 0  0.8984375 0 0  0.90625 0 0  0.9140625 0 0  0.921875 0 0  0.9296875 0 0  0.9375 0 0  0.9453125 0 0  0.953125 0 0  0.9609375 0 0  0.96875 0 0  0.9765625 0 0  0.984375 0 0  0.9921875 0 0  1 0 0  0 0.0078125 0  0.0078125 0.0078125 0  0.015625 0.0078125 0  0.0234375 0.0078125 0  0.03125 0.0078125 0  0.0390625 0.0078125 0  0.046875 0.0078125 0  0.0546875 0.0078125 0  0.0625 0.0078125 0  0.0703125 0.0078125 0  0.078125 0.0078125 0  0.0859375 0.0078125 0  0.09375 0.0078125 0  0.1015625 0.0078125 0  0.109375 0.0078125 0  0.1171875 0.0078125 0  0.125 0.0078125 0  0.1328125 0.0078125 0  0.140625 0.0078125 0  0.1484375 0.0078125 0  0.15625 0.0078125 0  0.1640625 0.0078125 0  0.171875 0.0078125 0  0.1796875 0.0078125 0  0.1875 0.0078125 0  0.1953125 0.0078125 0  0.203125 0.0078125 0  0.2109375 0.0078125 0  0.21875 0.0078125 0  0.2265625 0.0078125 0  0.234375 0.0078125 0  0.2421875 0.0078125 0  0.25 0.0078125 0  0.2578125 0.0078125 0  0.265625 0.0078125 0  0.2734375 0.0078125 0  0.28125 0.0078125 0  0.2890625 0.0078125 0  0.296875 0.0078125 0  0.3046875 0.0078125 0  0.3125 0.0078125 0  0.3203125 0.0078125 0  0.328125 0.0078125 0  0.3359375 0.0078125 0  0.34375 0.0078125 0  0.3515625 0.0078125 0  0.359375 0.0078125 0  0.3671875 0.0078125 0  0.375 0.0078125 0  0.3828125 0.0078125 0  0.390625 0.0078125 0  0.3984375 0.0078125 0  0.40625 0.0078125 0  0.4140625 0.0078125 0  0.421875 0.0078125 0  0.4296875 0.0078125 0  0.4375 0.0078125 0  0.4453125 0.0078125 0  0.453125 0.0078125 0  0.4609375 0.0078125 0  0.46875 0.0078125 0  0.4765625 0.0078125 0  0.484375 0.0078125 0  0.4921875 0.0078125 0  0.5 0.0078125 0  0.5078125 0.0078125 0  0.515625 0.0078125 0  0.5234375 0.0078125 0  0.53125 0.0078125 0  0.5390625 0.0078125 0  0.546875 0.0078125 0  0.5546875 0.0078125 0  0.5625 0.0078125 0  0.5703125 0.0078125 0  0.578125 0.0078125 0  0.5859375 0.0078125 0  0.59375 0.0078125 0  0.6015625 0.0078125 0  0.609375 0.0078125 0  0.6171875 0.0078125 0  0.625 0.0078125 0  0.6328125 0.0078125 0  0.640625 0.0078125 0  0.6484375 0.0078125 0  0.65625 0.0078125 0  0.6640625 0.0078125 0  0.671875 0.0078125 0  0.6796875 0.0078125 0  0.6875 0.0078125 0  0.6953125 0.0078125 0  0.703125 0.0078125 0  0.7109375 0.0078125 0  0.71875 0.0078125 0  0.7265625 0.0078125 0  0.734375 0.0078125 0  0.7421875 0.0078125 0  0.75 0.0078125 0  0.7578125 0.0078125 0  0.765625 0.0078125 0  0.7734375 0.0078125 0  0.78125 0.0078125 0  0.7890625 0.0078125 0  0.796875 0.0078125 0  0.8046875 0.0078125 0  0.8125 0.0078125 0  0.8203125 0.0078125 0  0.828125 0.0078125 0  0.8359375 0.0078125 0  0.84375 0.0078125 0  0.8515625 0.0078125 0  0.859375 0.0078125 0  0.8671875 0.0078125 0  0.875 0.0078125 0  0.8828125 0.0078125 0  0.890625 0.0078125 0  0.8984375 0.0078125 0  0.90625 0.0078125 0  0.9140625 0.0078125 0  0.921875 0.0078125 0  0.9296875 0.0078125 0  0.9375 0.0078125 0  0.9453125 0.0078125 0  0.953125 0.0078125 0  0.9609375 0.0078125 0  0.96875 0.0078125 0  0.9765625 0.0078125 0  0.984375 0.0078125 0  0.9921875 0.0078125 0  1 0.0078125 0  0 0.015625 0  0.0078125 0.015625 0  0.015625 0.015625 0  0.0234375 0.015625 0  0.03125 0.015625 0  0.0390625 0.015625 0  0.046875 0.015625 0  0.0546875 0.015625 0  0.0625 0.015625 0  0.0703125 0.015625 0  0.078125 0.015625 0  0.0859375 0.015625 0  0.09375 0.015625 0  0.1015625 0.015625 0  0.109375 0.015625 0  0.1171875 0.015625 0  0.125 0.015625 0  0.1328125 0.015625 0  0.140625 0.015625 0  0.1484375 0.015625 0  0.15625 0.015625 0  0.1640625 0.015625 0  0.171875 0.015625 0  0.1796875 0.015625 0  0.1875 0.015625 0  0.1953125 0.015625 0  0.203125 0.015625 0  0.2109375 0.015625 0  0.21875 0.015625 0  0.2265625 0.015625 0  0.234375 0.015625 0  0.2421875 0.015625 0  0.25 0.015625 0  0.2578125 0.015625 0  0.265625 0.015625 0  0.2734375 0.015625 0  0.28125 0.015625 0  0.2890625 0.015625 0  0.296875 0.015625 0  0.3046875 0.015625 0  0.3125 0.015625 0  0.3203125 0.015625 0  0.328125 0.015625 0  0.3359375 0.015625 0  0.34375 0.015625 0  0.3515625 0.015625 0  0.359375 0.015625 0  0.3671875 0.015625 0  0.375 0.015625 0  0.3828125 0.015625 0  0.390625 0.015625 0  0.3984375 0.015625 0  0.40625 0.015625 0  0.4140625 0.015625 0  0.421875 0.015625 0  0.4296875 0.015625 0  0.4375 0.015625 0  0.4453125 0.015625 0  0.453125 0.015625 0  0.4609375 0.015625 0  0.46875 0.015625 0  0.4765625 0.015625 0  0.484375 0.015625 0  0.4921875 0.015625 0  0.5 0.015625 0  0.5078125 0.015625 0  0.515625 0.015625 0  0.5234375 0.015625 0  0.53125 0.015625 0  0.5390625 0.015625 0  0.546875 0.015625 0  0.5546875 0.015625 0  0.5625 0.015625 0  0.5703125 0.015625 0  0.578125 0.015625 0  0.5859375 0.015625 0  0.59375 0.015625 0  0.6015625 0.015625 0  0.609375 0.015625 0  0.6171875 0.015625 0  0.625 0.015625 0  0.6328125 0.015625 0  0.640625 0.015625 0  0.6484375 0.015625 0  0.65625 0.015625 0  0.6640625 0.015625 0  0.671875 0.015625 0  0.6796875 0.015625 0  0.6875 0.015625 0  0.6953125 0.015625 0  0.703125 0.015625 0  0.7109375 0.015625 0  0.71875 0.015625 0  0.7265625 0.015625 0  0.734375 0.015625 0  0.7421875 0.015625 0  0.75 0.015625 0  0.7578125 0.015625 0  0.765625 0.015625 0  0.7734375 0.015625 0  0.78125 0.015625 0  0.7890625 0.015625 0  0.796875 0.015625 0  0.8046875 0.015625 0  0.8125 0.015625 0  0.8203125 0.015625 0  0.828125 0.015625 0  0.8359375 0.015625 0  0.84375 0.015625 0  0.8515625 0.015625 0  0.859375 0.015625 0  0.8671875 0.015625 0  0.875 0.015625 0  0.8828125 0.015625 0  0.890625 0.015625 0  0.8984375 0.015625 0  0.90625 0.015625 0  0.9140625 0.015625 0  0.921875 0.015625 0  0.9296875 0.015625 0  0.9375 0.015625 0  0.9453125 0.015625 0  0.953125 0.015625 0  0.9609375 0.015625 0  0.96875 0.015625 0  0.9765625 0.015625 0  0.984375 0.015625 0  0.9921875 0.015625 0  1 0.015625 0  0 0.0234375 0  0.0078125 0.0234375 0  0.015625 0.0234375 0  0.0234375 0.0234375 0  0.03125 0.0234375 0  0.0390625 0.0234375 0  0.046875 0.0234375 0  0.0546875 0.0234375 0  0.0625 0.0234375 0  0.0703125 0.0234375 0  0.078125 0.0234375 0  0.0859375 0.0234375 0  0.09375 0.0234375 0  0.1015625 0.0234375 0  0.109375 0.0234375 0  0.1171875 0.0234375 0  0.125 0.0234375 0  0.1328125 0.0234375 0  0.140625 0.0234375 0  0.1484375 0.0234375 0  0.15625 0.0234375 0  0.1640625 0.0234375 0  0.171875 0.0234375 0  0.1796875 0.0234375 0  0.1875 0.0234375 0  0.1953125 0.0234375 0  0.203125 0.0234375 0  0.2109375 0.0234375 0  0.21875 0.0234375 0  0.2265625 0.0234375 0  0.234375 0.0234375 0  0.2421875 0.0234375 0  0.25 0.0234375 0  0.2578125 0.0234375 0  0.265625 0.0234375 0  0.2734375 0.0234375 0  0.28125 0.0234375 0  0.2890625 0.0234375 0  0.296875 0.0234375 0  0.3046875 0.0234375 0  0.3125 0.0234375 0  0.3203125 0.0234375 0  0.328125 0.0234375 0  0.3359375 0.0234375 0  0.34375 0.0234375 0  0.3515625 0.0234375 0  0.359375 0.0234375 0  0.3671875 0.0234375 0  0.375 0.0234375 0  0.3828125 0.0234375 0  0.390625 0.0234375 0  0.3984375 0.0234375 0  0.40625 0.0234375 0  0.4140625 0.0234375 0  0.421875 0.0234375 0  0.4296875 0.0234375 0  0.4375 0.0234375 0  0.4453125 0.0234375 0  0.453125 0.0234375 0  0.4609375 0.0234375 0  0.46875 0.0234375 0  0.4765625 0.0234375 0  0.484375 0.0234375 0  0.4921875 0.0234375 0  0.5 0.0234375 0  0.5078125 0.0234375 0  0.515625 0.0234375 0  0.5234375 0.0234375 0  0.53125 0.0234375 0  0.5390625 0.0234375 0  0.546875 0.0234375 0  0.5546875 0.0234375 0  0.5625 0.0234375 0  0.5703125 0.0234375 0  0.578125 0.0234375 0  0.5859375 0.0234375 0  0.59375 0.0234375 0  0.6015625 0.0234375 0  0.609375 0.0234375 0  0.6171875 0.0234375 0  0.625 0.0234375 0  0.6328125 0.0234375 0  0.640625 0.0234375 0  0.6484375 0.0234375 0  0.65625 0.0234375 0  0.6640625 0.0234375 0  0.671875 0.0234375 0  0.6796875 0.0234375 0  0.6875 0.0234375 0  0.6953125 0.0234375 0  0.703125 0.0234375 0  0.7109375 0.0234375 0  0.71875 0.0234375 0  0.7265625 0.0234375 0  0.734375 0.0234375 0  0.7421875 0.0234375 0  0.75 0.0234375 0  0.7578125 0.0234375 0  0.765625 0.0234375 0  0.7734375 0.0234375 0  0.78125 0.0234375 0  0.7890625 0.0234375 0  0.796875 0.0234375 0  0.8046875 0.0234375 0  0.8125 0.0234375 0  0.8203125 0.0234375 0  0.828125 0.0234375 0  0.8359375 0.0234375 0  0.84375 0.0234375 0  0.8515625 0.0234375 0  0.859375 0.0234375 0  0.8671
[...]
<PointData  Scalars="u_sol"> 
<DataArray  type="Float64"  Name="u_sol"  format="ascii">1.4772863662164253e-06  -6.2682418403066087e-06  -1.7972838390411687e-05  -2.3992521683295856e-05  -2.4238987536535555e-05  -1.8858030672209538e-05  -8.6704875155484233e-06  5.2803286075463720e-06  2.1560396209408303e-05  3.8599767580957766e-05  5.4872210665978815e-05  6.9146184912663433e-05  8.0631146075799115e-05  8.9046302995009360e-05  9.4584727523384988e-05  9.7815154195630518e-05  9.9552562616029718e-05  1.0073577750510578e-04  1.0232941816216268e-04  1.0525609558003162e-04  1.1035205983900673e-04  1.1833418247734851e-04  1.2977021247956183e-04  1.4505365606026096e-04  1.6439219843100933e-04  1.8782892035689827e-04  2.1531532704539575e-04  2.4683449641268871e-04  2.8252941895864751e-04  3.2279593463225745e-04  3.6836328157675103e-04  4.2029536165920806e-04  4.7983980254737347e-04  5.4822141996468791e-04  6.2658403932167820e-04  7.1596507300367639e-04  8.1736834613889539e-04  9.3160161837783082e-04  1.0592544117385321e-03  1.2003182446759699e-03  1.3541228017950448e-03  1.5194380094302694e-03  1.6939610615035738e-03  1.8747181603572575e-03  2.0576623021291329e-03  2.2368413763422198e-03  2.4053759485396808e-03  2.5552587730473912e-03  2.6767060629649892e-03  2.7586640615255595e-03  2.7892189789588211e-03  2.7564815161088261e-03  2.6495736328339759e-03  2.4596576171434896e-03  2.1807961509294365e-03  1.8105608155485325e-03  1.3503361805358995e-03  8.0535805491782078e-04  1.8452116363466270e-04  -4.9992001668597503e-04  -1.2327586621127260e-03  -1.9959553959305195e-03  -2.7692609138181266e-03  -3.5285391526800438e-03  -4.2471052932363832e-03  -4.9145266598546880e-03  -5.5166383723746206e-03  -6.0131582376162845e-03  -6.3683428363969412e-03  -6.5570967945980481e-03  -6.5567515576590261e-03  -6.3509632936359986e-03  -5.9304305572323223e-03  -5.2945051454134180e-03  -4.4523543063061102e-03  -3.4238779038213980e-03  -2.2395450660240694e-03  -9.4004074011283750e-04  4.2515657283409661e-04  1.8025070911994409e-03  3.1273297603749469e-03  4.3525042487442137e-03  5.4305617724480434e-03  6.3088941433424601e-03  6.9631748850930075e-03  7.3798058635423363e-03  7.5591472689922378e-03  7.5158094977720007e-03  7.2753875645386505e-03  6.8720909127120994e-03  6.3424597004251388e-03  5.7318489661336396e-03  5.0785264172928234e-03  4.3984636803764948e-03  3.7087076893490764e-03  3.0331341467451432e-03  2.3941891720524796e-03  1.8055741774732517e-03  1.2771119740999453e-03  8.1958407847632889e-04  4.3912001448177405e-04  1.3769685990394504e-04  -8.6854094686439833e-05  -2.4136908724839450e-04  -3.3598158055197488e-04  -3.8273494198874121e-04  -3.9389491377061879e-04  -3.8059154985177300e-04  -3.5231153969774326e-04  -3.1640790886117447e-04  -2.7798852016012093e-04  -2.4040710792398820e-04  -2.0564603351526481e-04  -1.7475956444757386e-04  -1.4811637830836879e-04  -1.2564008360194351e-04  -1.0697363973357715e-04  -9.1576117514046649e-05  -7.8787076040673259e-05  -6.7878593103009755e-05  -5.8116483625599865e-05  -4.8809435971584354e-05  -3.9390461210458605e-05  -2.9468353358609012e-05  -1.8973836320763310e-05  -8.3422710889538115e-06  1.1302141411199076e-06  5.1919832253460570e-06  -2.5794782768028123e-07  3.9809668941050262e-06  -2.3563635998963368e-05  -2.6073019174804091e-05  5.8202025283570806e-05  2.5023899793395239e-04  5.5250333271351872e-04  9.5325767093573676e-04  1.4309388532658650e-03  1.9574745607826433e-03  2.5019951749620951e-03  3.0346428942075367e-03  3.5299504977816302e-03  3.9693514348509134e-03  4.3425079708966034e-03  4.6474422705582892e-03  4.8896493925406886e-03  5.0805109555289406e-03  5.2353476884630587e-03  5.3713992827855751e-03  5.5059189207933967e-03  5.6544754130077477e-03  5.8295019727960329e-03  6.0391285911002733e-03  6.2863771528598560e-03  6.5688491876178604e-03  6.8790272395522160e-03  7.2052116600423320e-03  7.5329359971654970e-03  7.8465249277899531e-03  8.1302828437305654e-03  8.3687503286102218e-03  8.5459299153721208e-03  8.6438160736802532e-03  8.6406801781414334e-03  8.5095125577883315e-03  8.2171851805711033e-03  7.7242449237160992e-03  6.9855292651202572e-03  5.9508106216107351e-03  4.5659833850255739e-03  2.7741712883315806e-03  5.1715665487228851e-04  -2.2616487090404221e-03  -5.6145155490156234e-03  -9.5856769051624845e-03  -1.4207261129770296e-02  -1.9496504018293656e-02  -2.5452069033582016e-02  -3.2050702644230343e-02  -3.9245654279376326e-02  -4.6966314738784445e-02  -5.5119766443899869e-02  -6.3593853354751553e-02  -7.2261403194738213e-02  -8.0984975820379432e-02  -8.9621588675013047e-02  -9.8026964470143529e-02  -1.0605903775172673e-01  -1.1358059853673765e-01  -1.2046113696902819e-01  -1.2657796574178937e-01  -1.3181702249246405e-01  -1.3607291337947180e-01  -1.3925049200426715e-01  -1.4126416179475043e-01  -1.4202394483070105e-01  -1.4145584614083845e-01  -1.3951954951173764e-01  -1.3618459896779592e-01  -1.3143288536093589e-01  -1.2526813603742412e-01  -1.1771626595660047e-01  -1.0882979470403291e-01  -9.8690208550035963e-02  -8.7410440205784534e-02  -7.5136067925119523e-02  -6.2045356033713216e-02  -4.8347109797218298e-02  -3.4276569517637932e-02  -2.0090336878746798e-02  -6.0514306684363982e-03  7.5631385495356059e-03  2.0491633616311889e-02  3.2502243753050379e-02  4.3381885350265686e-02  5.2960759669370507e-02  6.1114903457107593e-02  6.7768424222895460e-02  7.2893703391223849e-02  7.6506469792985324e-02  7.8662120378430830e-02  7.9439102685507482e-02  7.8939128238687373e-02  7.7290978749403397e-02  7.4627199376571682e-02  7.1072670043698813e-02  6.6746667182306221e-02  6.1777410291663767e-02  5.6304907356893891e-02  5.0477282786050168e-02  4.4457137033825304e-02  3.8417976393815813e-02  3.2534764031781113e-02  2.6971472808342004e-02  2.1865937081625143e-02  1.7317637899884806e-02  1.3381146798428625e-02  1.0066723064706181e-02  7.3473740062266505e-03  5.1692201344389092e-03  3.4626958304284114e-03  2.1526839934244376e-03  1.1660771689428527e-03  4.3672110612556672e-04  -9.2081799584232458e-05  -4.6662387286080587e-04  -7.2291227589778241e-04  -8.8753801837187650e-04  -9.7905310698380801e-04  -1.0096962031004959e-03  -9.8732616900849444e-04  -9.1747470724757934e-04  -8.0538737566599264e-04  -6.5810366516854096e-04  -4.8641614544473729e-04  -3.0712560476685031e-04  -1.4448861373480049e-04  -3.1287927218454550e-05  6.4632757982877592e-06  -6.9477666257770224e-07  1.8143876492420426e-06  7.9374877626937665e-05  2.9661385888139140e-04  6.8035095653330702e-04  1.2328892608506671e-03  1.9352461827501087e-03  2.7532559254830682e-03  3.6430756334702827e-03  4.5571131787459683e-03  5.4496551867045974e-03  6.2817087420899689e-03  7.0244944843282026e-03  7.6613251394425800e-03  8.1878507090321056e-03  8.6108922842122303e-03  8.9462355277135034e-03  9.2158001386528025e-03  9.4445552752692365e-03  9.6574632196994078e-03  9.8766398354464824e-03  1.0118857270101604e-02  1.0393511206637836e-02  1.0701210950250300e-02  1.1033170483402089e-02  1.1371546309516412e-02  1.1690718251853097e-02  1.1959218704120330e-02  1.2141643243438320e-02  1.2199861621003614e-02  1.2093167547221487e-02  1.1777000890158460e-02  1.1200456808404782e-02  1.0303620832918104e-02  9.0160790853198326e-03  7.2568870919178328e-03  4.9360158449411719e-03  1.9563100128975209e-03  -1.7831896591916107e-03  -6.3827647910391291e-03  -1.1935890459997565e-02  -1.8521897410595633e-02  -2.6198809759033961e-02  -3.4994759810216401e-02  -4.4900009877473293e-02  -5.5860643656220066e-02  -6.7775062335514460e-02  -8.0495651336260757e-02  -9.3835076529685341e-02  -1.0757620363508405e-01  -1.2148440397083070e-01  -1.3532007952419550e-01  -1.4884997756645110e-01  -1.6185618266578428e-01  -1.7414235115097512e-01  -1.8553720417705810e-01  -1.9589564719726696e-01  -2.0509804700795314e-01  -2.1304824731394167e-01  -2.1967084589043595e-01  -2.2490819285103314e-01  -2.2871739708544811e-01  -2.3106797635290294e-01  -2.3193924945236535e-01  -2.3132064893563509e-01  -2.2922222753360888e-01  -2.2565588505076586e-01  -2.2062404982771613e-01  -2.1414091538206068e-01  -2.0623029431892784e-01  -1.9692450157628968e-01  -1.8626930607688774e-01  -1.7432499408581201e-01  -1.6117002978444450e-01  -1.4690336873965343e-01  -1.3164673670735208e-01  -1.1554595107695576e-01  -9.8771086785012119e-02  -8.1515020931116317e-02  -6.3990091011548011e-02  -4.6425003337331128e-02  -2.9050911303057265e-02  -1.2104388505433324e-02  4.1832970500964069e-03  1.9602860267861153e-02  3.3963993354385824e-02  4.7104374717862343e-02  5.8892680273487749e-02  6.9229121718759362e-02  7.8045791165751915e-02  8.5301890292310473e-02  9.0985691499346780e-02  9.5104182489777062e-02  9.7670292603127512e-02  9.8707849816767751e-02  9.8258521765735407e-02  9.6387333253473498e-02  9.3165100965812306e-02  8.8672511810533081e-02  8.3025273560525747e-02  7.6380796285176883e-02  6.8946153109226083e-02  6.0980595090352481e-02  5.2783203794164568e-02  4.4668728130585311e-02  3.6934130514939330e-02  2.9825105220506635e-02  2.3512085268851270e-02  1.8081483290575271e-02  1.3542571330348904e-02  9.8449481977237168e-03  6.8999187767801841e-03  4.6004145169680653e-03  2.8364298705931285e-03  1.5055387166065576e-03  5.1880663879222725e-04  -1.9682017703883867e-04  -6.9849918578843975e-04  -1.0290540859432731e-03  -1.2195439164012880e-03  -1.2923979616102045e-03  -1.2647651867299435e-03  -1.1518597634969166e-03  -9.7010504148834615e-04  -7.4005438692632786e-04  -4.8859459067907680e-04  -2.5070919646345320e-04  -6.6505100836299503e-05  1.2846034282228847e-05  -7.3036525307326856e-06  3.5965013295622218e-05  2.1364682829919920e-04  5.7751806170583083e-04  1.1496152163523652e-03  1.9260311014528541e-03  2.8792510581409129e-03  3.9642203909368368e-03  5.1252639424645948e-03  6.3034409439346323e-03  7.4433535865874815e-03  8.4986681625454884e-03  9.4358465118535642e-03  1.0235890932219197e-02  1.0894223900423081e-02  1.1419043673984854e-02  1.1828578690647649e-02  1.2147663285104289e-02  1.2404003289169512e-02  1.2624410232560345e-02  1.2831203836240887e-02  1.3038962176410143e-02  1.3251813372392979e-02  1.3461513663446421e-02  1.3646586713513783e-02  1.3772674773061147e-02  1.3793951529683678e-02  1.3655143796665796e-02  1.3293535709952845e-02  1.2639905937136603e-02  1.1617473125897108e-02  1.0139510863811256e-02  8.1070107324934908e-03  5.4074931661411271e-03  1.9153694088984452e-03  -2.5051048735762380e-03  -7.9939627676593947e-03  -1.4686728252720908e-02  -2.2704151143266446e-02  -3.2140216838619971e-02  -4.3048438772476286e-02  -5.5427819035152662e-02  -6.9210497857975561e-02  -8.4255797122774145e-02  -1.0035252459018104e-01  -1.1723027458416911e-01  -1.3457825700675957e-01  -1.5206793909925298e-01  -1.6937584843393647e-01  -1.8620311228258549e-01  -2.0228955494203721e-01  -2.1742171603050331e-01  -2.3143511443021744e-01  -2.4421193821484302e-01  -2.5567557326737500e-01  -2.6578339139264118e-01  -2.7451896740443521e-01  -2.8188458534504934e-01  -2.8789457503646249e-01  -2.9256975632470728e-01  -2.9593307119762952e-01  -2.9800635587355406e-01  -2.9880786320274894e-01  -2.9835108826979356e-01  -2.9664186000075643e-01  -2.9366678599703333e-01  -2.8940906145751455e-01  -2.8386231444813692e-01  -2.7701677073132175e-01  -2.6886354630601356e-01  -2.5939959313874045e-01  -2.4862943225332018e-01  -2.3657045468354196e-01  -2.2325655979350464e-01  -2.0874294816847155e-01  -1.9311018446113709e-01  -1.7646761187233595e-01  -1.5895539246352436e-01  -1.4074453052798744e-01  -1.2203456995613733e-01  -1.0304739682342590e-01  -8.4022237551956494e-02  -6.5201070611230746e-02  -4.6819561762994212e-02  -2.9098636562225957e-02  -1.2230326351259013e-02  3.6260747578264600e-03  1.8347515040703911e-02  3.1846741675272044e-02  4.4067362773499930e-02  5.4978698998971919e-02  6.4564163362239149e-02  7.2818390577289907e-02  7.9742403170065757e-02  8.5330955142068038e-02  8.9559226139735160e-02  9.2370977569219220e-02  9.3710522532798352e-02  9.3535199437696726e-02  9.1805738263043210e-02  8.8514937213845388e-02  8.3716639608201679e-02  7.7547684128057709e-02  7.0244613950369766e-02  6.2139840093734841e-02  5.3634192807398555e-02  4.5148488220966856e-02  3.7066684040362209e-02  2.9687968115173109e-02  2.3200902731819122e-02  1.7683316748809515e-02  1.3121824336614834e-02  9.4405373845814870e-03  6.5297123175348647e-03  4.2686077817527630e-03  2.5410762028950512e-03  1.2445943937856255e-03  2.9412127895990129e-04  -3.7766988867121698e-04  -8.2243993218735292e-04  -1.0795192039496225e-03  -1.1798146692333553e-03  -1.1497832084822793e-03  -1.0151112239672616e-03  -8.0399016668974987e-04  -5.4948504974336064e-04  -2.9212278482589852e-04  -7.9789881100170938e-05  1.5541446964311058e-05  -1.3813538456189556e-05  6.8848889358851906e-05  3.4937677552169215e-04  8.6373429519062792e-04  1.6229659386823262e-03  2.6118810902177772e-03  3.7907167389402050e-03  5.1015150112652171e-03  6.4763605236228530e-03  7.8461438654273963e-03  9.1483931976990961e-03  1.0333161349265324e-02  1.1366426871199497e-02  1.2231037676412117e-02  1.2925579681684590e-02  1.3461713305275095e-02  1.3860550718803795e-02  1.4148533872122135e-02  1.4353117542575990e-02  1.4498449887369216e-02  1.4601210771795308e-02  1.4666779978437358e-02  1.4686012942274750e-02  1.4632986793089062e-02  1.4464050118979391e-02  1.4118364406596369e-02  1.3519777982896579e-02  1.2579117805464612e-02  1.1195444387155433e-02  9.2557759306848633e-03  6.6337768878242812e-03  3.1878105622960436e-03  -1.2399568059919012e-03  -6.8205373233087355e-03  -1.3729542732295458e-02  -2.2134523352117255e-02  -3.2179395574424806e-02  -4.3966157995134238e-02  -5.7534166274128738e-02  -7.2840172087579702e-02  -8.9744423656254249e-02  -1.0800787190301706e-01  -1.2730406823594720e-01  -1.4724444148766075e-01  -1.6741245536489613e-01  -1.8739979474170648e-01  -2.0683791828810119e-01  -2.2542044731885266e-01  -2.4291456874213618e-01  -2.5916212880589018e-01  -2.7407267278455383e-01  -2.8761141075432262e-01  -2.9978502091577619e-01  -3.1062758437292443e-01  -3.2018820373604229e-01  -3.2852108246257483e-01  -3.3567825992784028e-01  -3.4170478597548948e-01  -3.4663590635198194e-01  -3.5049576436680213e-01  -3.5329715618886853e-01  -3.5504198361630002e-01  -3.5572236220952158e-01  -3.5532171942221918e-01  -3.5381739601037698e-01  -3.5119088933149212e-01  -3.4742037300906309e-01  -3.4247238498504157e-01  -3.3631244978895031e-01  -3.2890552730417738e-01  -3.2021712738010394e-01  -3.1021745010669249e-01  -2.9888436693433901e-01  -2.8620861579019391e-01  -2.7219904231592729e-01  -2.5688876055991133e-01  -2.4034132299202923e-01  -2.2265632933146071e-01  -2.0397361029713656e-01  -1.8447462461039699e-01  -1.6438121933469355e-01  -1.4394811692944043e-01  -1.2345328149681992e-01  -1.0318272798910400e-01  -8.3413208460157817e-02  -6.4396204902917614e-02  -4.6341555715925686e-02  -2.9407627128555724e-02  -1.3696819739466274e-02  7.4277151415708337e-04  1.3908782523162595e-02  2.5834382824519154e-02  3.6570468556568536e-02  4.6170857168704414e-02  5.4678943676815646e-02  6.2120829163725480e-02  6.8505893299544568e-02  7.3784784910367843e-02  7.7847055474942903e-02  8.0561705080464632e-02  8.1781131309633270e-02  8.1364834859520174e-02  7.9225414364313573e-02  7.5371069249705283e-02  6.9942545365727443e-02  6.3226227743393232e-02  5.5632694243491487e-02  4.7641230646424677e-02  3.9725080536023680e-02  3.2281695382199403e-02  2.5588755725213911e-02  1.9793967416356834e-02  1.4932506383302941e-02  1.0958731519611204e-02  7.7797635653121047e-03  5.2832350798613847e-03  3.3564824798052793e-03  1.8977206653937747e-03  8.2098733628836837e-04  5.6743787493113303e-05  -4.5020217135380660e-04  -7.4412389665579493e-04  -8.6227517010541892e-04  -8.3866323537708622e-04  -7.0750458732603500e-04  -5.0606991615165134e-04  -2.7845125929917163e-04  -7.7883511369422474e-05  1.5200677562517517e-05  -1.9885305664381678e-05  9.9094224682452992e-05  4.8129054736048972e-04  1.1496610519844525e-03  2.1008715673343451e-03  3.3035983334596341e-03  4.7007000139253664e-03  6.2169450102900177e-03  7.7692405525653322e-03  9.2772821263444952e-03  1.0672529353043900e-02  1.1904163058964310e-02  1.2941609335160658e-02  1.3773915533303913e-02  1.4406787323656500e-02  1.4858239218044651e-02  1.5153611026203100e-02  1.5320426592826994e-02  1.5383321464204595e-02  1.5359119638877856e-02  1.5252100411019386e-02  1.5049666936303710e-02  1.4718803478289553e-02  1.4203861482865286e-02  1.3426193662751303e-02  1.2285600548264917e-02  1.0662715317381083e-02  8.4213311673763114e-03  5.4097934545952655e-03  1.4603578225600821e-03  -3.6122967792186281e-03  -1.0009064145268323e-02  -1.7937760671982314e-02  -2.7597545922805215e-02  -3.9157304585403147e-02  -5.2729255823451462e-02  -6.8340833070163254e-02  -8.5909474569044603e-02  -1.0522721392595286e-01  -1.2596248658536999e-01  -1.4768286762319904e-01  -1.6989607682347371e-01  -1.9210032830413620e-01  -2.1383310545626594e-01  -2.3470887824416631e-01  -2.5444037634922179e-01  -2.7284281990151760e-01  -2.8982426040784670e-01  -3.0536704391175379e-01  -3.1950570188496347e-01  -3.3230563867300300e-01  -3.4384540703713468e-01  -3.5420381889232699e-01  -3.6345190752559187e-01  -3.7164897306828398e-01  -3.7884161386451304e-01  -3.8506462319824436e-01  -3.9034281664875192e-01  -3.9469310873419683e-01  -3.9812640562695784e-01  -4.0064907301739422e-01  -4.0226384924967845e-01  -4.0296997456593264e-01  -4.0276277538783783e-01  -4.0163228531978484e-01  -3.9955686587244787e-01  -3.9650631249755602e-01  -3.9244696057168382e-01  -3.8733700983473135e-01  -3.8112740184164218e-01  -3.7376315245716701e-01  -3.6518437191428604e-01  -3.5532932970846554e-01  -3.4413812758045847e-01  -3.3155838457142345e-01  -3.1755236344500981e-01  -3.0210577936175087e-01  -2.8523772411434417e-01  -2.6701080115028331e-01  -2.4754037128486769e-01  -2.2700024487857498e-01  -2.0562471530297419e-01  -1.8370341370468951e-01  -1.6156884263790308e-01  -1.3957699313332797e-01  -1.1808259018389256e-01  -9.7412924291020470e-02  -7.7842784923245603e-02  -5.9575805745643196e-02  -4.2734387036438712e-02  -2.7359442366804296e-02  -1.3420448562675604e-02  -8.3080664054805211e-04  1.0530251404866761e-02  2.0795998050603313e-02  3.0087389091880294e-02  3.8485530118185327e-02  4.6044029631672437e-02  5.2767512948161219e-02  5.8569319142735214e-02  6.3295566462737596e-02  6.6745182170656114e-02  6.8691896789722026e-02  6.8937007566751168e-02  6.7368556603518356e-02  6.4017434070737247e-02  5.9089075551734982e-02  5.2952992131298976e-02  4.6087730629521248e-02  3.8997167879676900e-02  3.2127199217721267e-02  2.5809072832402163e-02  2.0240518555616704e-02  1.5499034015383646e-02  1.1572738705406234e-02  8.3946971218836521e-03  5.8719801044247689e-03  3.9061710870541421e-03  2.4054920930925354e-03  1.2903477862094201e-03  4.9439302300847488e-04  -3.7100515378693004e-05  -3.5017163034334217e-04  -4.8548536260609068e-04  -4.8168129636626760e-04  -3.7853414692999555e-04  -2.2138265951912115e-04  -6.4523061065934609e-05  1.2589232230520110e-05  -2.5890863442403640e-05  1.2887053172925373e-04  6.1598005109906098e-04  1.4476900833831378e-03  2.6035710171018354e-03  4.0309540052804980e-03  5.6490757984011342e-03  7.3597598239829604e-03  9.0608609153724519e-03  1.0659493413448285e-02  1.2082207641835518e-02  1.3280562067233038e-02  1.4231836985139610e-02  1.4935862450534272e-02  1.5409396215163731e-02  1.5679399382996510e-02  1.5776180605945454e-02  1.5726884127739860e-02  1.5549400727650049e-02  1.5246612035551242e-02  1.4801052453580059e-02  1.4170259126981258e-02  1.3283446039175957e-02  1.2040249451608427e-02  1.0311817190868440e-02  7.9440264360341184e-03  4.7617907382843192e-03  5.7211379246847362e-04  -4.8350162915256466e-03  -1.1684932209210491e-02  -2.0211849596212625e-02  -3.0644234939085108e-02  -4.3179533420452207e-02  -5.7950009535369829e-02  -7.4985578258391722e-02  -9.4181330231914315e-02  -1.1527892370767667e-01  -1.3787136703142810e-01  -1.6143575442917429e-01  -1.8538931948723714e-01  -2