<?xml version="1.0"?>
<VTKFile type="UnstructuredGrid"  version="0.1"  >
<UnstructuredGrid>
<Piece  NumberOfPoints="16641" NumberOfCells="16384">
<Points>
<DataArray  type="Float64"  NumberOfComponents="3"  format="ascii">0 0 0  0.0078125 0 0  0.015625 0 0  0.0234375 0 0  0.03125 0 0  0.0390625 0 0  0.046875 0 0  0.0546875 0 0  0.0625 0 0  0.0703125 0 0  0.078125 0 0  0.0859375 0 0  0.09375 0 0  0.1015625 0 0  0.109375 0 0  0.1171875 0 0  0.125 0 0  0.1328125 0 0  0.140625 0 0  0.1484375 0 0  0.15625 0 0  0.1640625 0 0  0.171875 0 0  0.1796875 0 0  0.1875 0 0  0.1953125 0 0  0.203125 0 0  0.2109375 0 0  0.21875 0 0  0.2265625 0 0  0.234375 0 0  0.2421875 0 0  0.25 0 0  0.2578125 0 0  0.265625 0 0  0.2734375 0 0  0.28125 0 0  0.2890625 0 0  0.296875 0 0  0.3046875 0 0  0.3125 0 0  0.3203125 0 0  0.328125 0 0  0.3359375 0 0  0.34375 0 0  0.3515625 0 0  0.359375 0 0  0.3671875 0 0  0.375 0 0  0.3828125 0 0  0.390625 0 0  0.3984375 0 0  0.40625 0 0  0.4140625 0 0  0.421875 0 0  0.4296875 0 0  0.4375 0 0  0.4453125 0 0  0.453125 0 0  0.4609375 0 0  0.46875 0 0  0.4765625 0 0  0.484375 0 0  0.4921875 0 0  0.5 0 0  0.5078125 0 0  0.515625 0 0  0.5234375 0 0  0.53125 0 0  0.5390625 0 0  0.546875 0 0  0.5546875 0 0  0.5625 0 0  0.5703125 0 0  0.578125 0 0  0.5859375 0 0  0.59375 0 0  0.6015625 0 0  0.609375 0 0  0.6171875 0 0  0.625 0 0  0.6328125 0 0  0.640625 0 0  0.6484375 0 0  0.65625 0 0  0.6640625 0 0  0.671875 0 0  0.6796875 0 0  0.6875 0 0  0.6953125 0 0  0.703125 0 0  0.7109375 0 0  0.71875 0 0  0.7265625 0 0  0.734375 0 0  0.7421875 0 0  0.75 0 0  0.7578125 0 0  0.765625 0 0  0.7734375 0 0  0.78125 0 0  0.7890625 0 0  0.796875 0 0  0.8046875 0 0  0.8125 0 0  0.8203125 0 0  0.828125 0 0  0.8359375 0 0  0.84375 0 0  0.8515625 0 0  0.859375 0 0  0.8671875 0 0  0.875 0 0  0.8828125 0 0  0.890625 0 0  0.8984375 0 0  0.90625 0 0  0.9140625 0 0  0.921875 0 0  0.9296875 0 0  0.9375 0 0  0.9453125 0 0  0.953125 0 0  0.9609375 0 0  0.96875 0 0  0.9765625 0 0  0.984375 0 0  0.9921875 0 0  1 0 0  0 0.0078125 0  0.0078125 0.0078125 0  0.015625 0.0078125 0  0.0234375 0.0078125 0  0.03125 0.0078125 0  0.0390625 0.0078125 0  0.046875 0.0078125 0  0.0546875 0.0078125 0  0.0625 0.0078125 0  0.0703125 0.0078125 0  0.078125 0.0078125 0  0.0859375 0.0078125 0  0.09375 0.0078125 0  0.1015625 0.0078125 0  0.109375 0.0078125 0  0.1171875 0.0078125 0  0.125 0.0078125 0  0.1328125 0.0078125 0  0.140625 0.0078125 0  0.1484375 0.0078125 0  0.15625 0.0078125 0  0.1640625 0.0078125 0  0.171875 0.0078125 0  0.1796875 0.0078125 0  0.1875 0.0078125 0  0.1953125 0.0078125 0  0.203125 0.0078125 0  0.2109375 0.0078125 0  0.21875 0.0078125 0  0.2265625 0.0078125 0  0.234375 0.0078125 0  0.2421875 0.0078125 0  0.25 0.0078125 0  0.2578125 0.0078125 0  0.265625 0.0078125 0  0.2734375 0.0078125 0  0.28125 0.0078125 0  0.2890625 0.0078125 0  0.296875 0.0078125 0  0.3046875 0.0078125 0  0.3125 0.0078125 0  0.3203125 0.0078125 0  0.328125 0.0078125 0  0.3359375 0.0078125 0  0.34375 0.0078125 0  0.3515625 0.0078125 0  0.359375 0.0078125 0  0.3671875 0.0078125 0  0.375 0.0078125 0  0.3828125 0.0078125 0  0.390625 0.0078125 0  0.3984375 0.0078125 0  0.40625 0.0078125 0  0.4140625 0.0078125 0  0.421875 0.0078125 0  0.4296875 0.0078125 0  0.4375 0.0078125 0  0.4453125 0.0078125 0  0.453125 0.0078125 0  0.4609375 0.0078125 0  0.46875 0.0078125 0  0.4765625 0.0078125 0  0.484375 0.0078125 0  0.4921875 0.0078125 0  0.5 0.0078125 0  0.5078125 0.0078125 0  0.515625 0.0078125 0  0.5234375 0.0078125 0  0.53125 0.0078125 0  0.5390625 0.0078125 0  0.546875 0.0078125 0  0.5546875 0.0078125 0  0.5625 0.0078125 0  0.5703125 0.0078125 0  0.578125 0.0078125 0  0.5859375 0.0078125 0  0.59375 0.0078125 0  0.6015625 0.0078125 0  0.609375 0.0078125 0  0.6171875 0.0078125 0  0.625 0.0078125 0  0.6328125 0.0078125 0  0.640625 0.0078125 0  0.6484375 0.0078125 0  0.65625 0.0078125 0  0.6640625 0.0078125 0  0.671875 0.0078125 0  0.6796875 0.0078125 0  0.6875 0.0078125 0  0.6953125 0.0078125 0  0.703125 0.0078125 0  0.7109375 0.0078125 0  0.71875 0.0078125 0  0.7265625 0.0078125 0  0.734375 0.0078125 0  0.7421875 0.0078125 0  0.75 0.0078125 0  0.7578125 0.0078125 0  0.765625 0.0078125 0  0.7734375 0.0078125 0  0.78125 0.0078125 0  0.7890625 0.0078125 0  0.796875 0.0078125 0  0.8046875 0.0078125 0  0.8125 0.0078125 0  0.8203125 0.0078125 0  0.828125 0.0078125 0  0.8359375 0.0078125 0  0.84375 0.0078125 0  0.8515625 0.0078125 0  0.859375 0.0078125 0  0.8671875 0.0078125 0  0.875 0.0078125 0  0.8828125 0.0078125 0  0.890625 0.0078125 0  0.8984375 0.0078125 0  0.90625 0.0078125 0  0.9140625 0.0078125 0  0.921875 0.0078125 0  0.9296875 0.0078125 0  0.9375 0.0078125 0  0.9453125 0.0078125 0  0.953125 0.0078125 0  0.9609375 0.0078125 0  0.96875 0.0078125 0  0.9765625 0.0078125 0  0.984375 0.0078125 0  0.9921875 0.0078125 0  1 0.0078125 0  0 0.015625 0  0.0078125 0.015625 0  0.015625 0.015625 0  0.0234375 0.015625 0  0.03125 0.015625 0  0.0390625 0.015625 0  0.046875 0.015625 0  0.0546875 0.015625 0  0.0625 0.015625 0  0.0703125 0.015625 0  0.078125 0.015625 0  0.0859375 0.015625 0  0.09375 0.015625 0  0.1015625 0.015625 0  0.109375 0.015625 0  0.1171875 0.015625 0  0.125 0.015625 0  0.1328125 0.015625 0  0.140625 0.015625 0  0.1484375 0.015625 0  0.15625 0.015625 0  0.1640625 0.015625 0  0.171875 0.015625 0  0.1796875 0.015625 0  0.1875 0.015625 0  0.1953125 0.015625 0  0.203125 0.015625 0  0.2109375 0.015625 0  0.21875 0.015625 0  0.2265625 0.015625 0  0.234375 0.015625 0  0.2421875 0.015625 0  0.25 0.015625 0  0.2578125 0.015625 0  0.265625 0.015625 0  0.2734375 0.015625 0  0.28125 0.015625 0  0.2890625 0.015625 0  0.296875 0.015625 0  0.3046875 0.015625 0  0.3125 0.015625 0  0.3203125 0.015625 0  0.328125 0.015625 0  0.3359375 0.015625 0  0.34375 0.015625 0  0.3515625 0.015625 0  0.359375 0.015625 0  0.3671875 0.015625 0  0.375 0.015625 0  0.3828125 0.015625 0  0.390625 0.015625 0  0.3984375 0.015625 0  0.40625 0.015625 0  0.4140625 0.015625 0  0.421875 0.015625 0  0.4296875 0.015625 0  0.4375 0.015625 0  0.4453125 0.015625 0  0.453125 0.015625 0  0.4609375 0.015625 0  0.46875 0.015625 0  0.4765625 0.015625 0  0.484375 0.015625 0  0.4921875 0.015625 0  0.5 0.015625 0  0.5078125 0.015625 0  0.515625 0.015625 0  0.5234375 0.015625 0  0.53125 0.015625 0  0.5390625 0.015625 0  0.546875 0.015625 0  0.5546875 0.015625 0  0.5625 0.015625 0  0.5703125 0.015625 0  0.578125 0.015625 0  0.5859375 0.015625 0  0.59375 0.015625 0  0.6015625 0.015625 0  0.609375 0.015625 0  0.6171875 0.015625 0  0.625 0.015625 0  0.6328125 0.015625 0  0.640625 0.015625 0  0.6484375 0.015625 0  0.65625 0.015625 0  0.6640625 0.015625 0  0.671875 0.015625 0  0.6796875 0.015625 0  0.6875 0.015625 0  0.6953125 0.015625 0  0.703125 0.015625 0  0.7109375 0.015625 0  0.71875 0.015625 0  0.7265625 0.015625 0  0.734375 0.015625 0  0.7421875 0.015625 0  0.75 0.015625 0  0.7578125 0.015625 0  0.765625 0.015625 0  0.7734375 0.015625 0  0.78125 0.015625 0  0.7890625 0.015625 0  0.796875 0.015625 0  0.8046875 0.015625 0  0.8125 0.015625 0  0.8203125 0.015625 0  0.828125 0.015625 0  0.8359375 0.015625 0  0.84375 0.015625 0  0.8515625 0.015625 0  0.859375 0.015625 0  0.8671875 0.015625 0  0.875 0.015625 0  0.8828125 0.015625 0  0.890625 0.015625 0  0.8984375 0.015625 0  0.90625 0.015625 0  0.9140625 0.015625 0  0.921875 0.015625 0  0.9296875 0.015625 0  0.9375 0.015625 0  0.9453125 0.015625 0  0.953125 0.015625 0  0.9609375 0.015625 0  0.96875 0.015625 0  0.9765625 0.015625 0  0.984375 0.015625 0  0.9921875 0.015625 0  1 0.015625 0  0 0.0234375 0  0.0078125 0.0234375 0  0.015625 0.0234375 0  0.0234375 0.0234375 0  0.03125 0.0234375 0  0.0390625 0.0234375 0  0.046875 0.0234375 0  0.0546875 0.0234375 0  0.0625 0.0234375 0  0.0703125 0.0234375 0  0.078125 0.0234375 0  0.0859375 0.0234375 0  0.09375 0.0234375 0  0.1015625 0.0234375 0  0.109375 0.0234375 0  0.1171875 0.0234375 0  0.125 0.0234375 0  0.1328125 0.0234375 0  0.140625 0.0234375 0  0.1484375 0.0234375 0  0.15625 0.0234375 0  0.1640625 0.0234375 0  0.171875 0.0234375 0  0.1796875 0.0234375 0  0.1875 0.0234375 0  0.1953125 0.0234375 0  0.203125 0.0234375 0  0.2109375 0.0234375 0  0.21875 0.0234375 0  0.2265625 0.0234375 0  0.234375 0.0234375 0  0.2421875 0.0234375 0  0.25 0.0234375 0  0.2578125 0.0234375 0  0.265625 0.0234375 0  0.2734375 0.0234375 0  0.28125 0.0234375 0  0.2890625 0.0234375 0  0.296875 0.0234375 0  0.3046875 0.0234375 0  0.3125 0.0234375 0  0.3203125 0.0234375 0  0.328125 0.0234375 0  0.3359375 0.0234375 0  0.34375 0.0234375 0  0.3515625 0.0234375 0  0.359375 0.0234375 0  0.3671875 0.0234375 0  0.375 0.0234375 0  0.3828125 0.0234375 0  0.390625 0.0234375 0  0.3984375 0.0234375 0  0.40625 0.0234375 0  0.4140625 0.0234375 0  0.421875 0.0234375 0  0.4296875 0.0234375 0  0.4375 0.0234375 0  0.4453125 0.0234375 0  0.453125 0.0234375 0  0.4609375 0.0234375 0  0.46875 0.0234375 0  0.4765625 0.0234375 0  0.484375 0.0234375 0  0.4921875 0.0234375 0  0.5 0.0234375 0  0.5078125 0.0234375 0  0.515625 0.0234375 0  0.5234375 0.0234375 0  0.53125 0.0234375 0  0.5390625 0.0234375 0  0.546875 0.0234375 0  0.5546875 0.0234375 0  0.5625 0.0234375 0  0.5703125 0.0234375 0  0.578125 0.0234375 0  0.5859375 0.0234375 0  0.59375 0.0234375 0  0.6015625 0.0234375 0  0.609375 0.0234375 0  0.6171875 0.0234375 0  0.625 0.0234375 0  0.6328125 0.0234375 0  0.640625 0.0234375 0  0.6484375 0.0234375 0  0.65625 0.0234375 0  0.6640625 0.0234375 0  0.671875 0.0234375 0  0.6796875 0.0234375 0  0.6875 0.0234375 0  0.6953125 0.0234375 0  0.703125 0.0234375 0  0.7109375 0.0234375 0  0.71875 0.0234375 0  0.7265625 0.0234375 0  0.734375 0.0234375 0  0.7421875 0.0234375 0  0.75 0.0234375 0  0.7578125 0.0234375 0  0.765625 0.0234375 0  0.7734375 0.0234375 0  0.78125 0.0234375 0  0.7890625 0.0234375 0  0.796875 0.0234375 0  0.8046875 0.0234375 0  0.8125 0.0234375 0  0.8203125 0.0234375 0  0.828125 0.0234375 0  0.8359375 0.0234375 0  0.84375 0.0234375 0  0.8515625 0.0234375 0  0.859375 0.0234375 0  0.8671
[...]
<PointData  Scalars="v_sol"> 
<DataArray  type="Float64"  Name="v_sol"  format="ascii">-1.4622897338253071e-06  -3.8815637872650708e-06  1.7581772617061163e-06  1.0922723445240988e-05  2.1089901413511946e-05  3.0751151951372787e-05  3.8856962366650626e-05  4.4663695895892190e-05  4.7736787107363165e-05  4.7993800517930535e-05  4.5690121617772166e-05  4.1362811920328131e-05  3.5728729644321112e-05  2.9569111676639556e-05  2.3622079078656206e-05  1.8503019368827789e-05  1.4657216720377676e-05  1.2344269595601244e-05  1.1644725879371615e-05  1.2478505791568892e-05  1.4626715307427245e-05  1.7755621531512569e-05  2.1443210095896177e-05  2.5217168726755494e-05  2.8606506143872538e-05  3.1199229515563602e-05  3.2693934912041860e-05  3.2937939988222337e-05  3.1930600361257691e-05  2.9746724140730123e-05  2.6420181874505390e-05  2.1883835478508585e-05  1.5936883439982923e-05  8.2233067219683948e-06  -1.7626369121441738e-06  -1.4583403736967306e-05  -3.0803156856011866e-05  -5.0879741154987004e-05  -7.5280868496463194e-05  -1.0436254389638378e-04  -1.3852576202514030e-04  -1.7795035652642138e-04  -2.2256106318251383e-04  -2.7207856299343749e-04  -3.2592960383497294e-04  -3.8339334668317440e-04  -4.4347011153822528e-04  -5.0482039175097260e-04  -5.6573059420642492e-04  -6.2417324889489645e-04  -6.7790231564388958e-04  -7.2464189069713718e-04  -7.6225553828338671e-04  -7.8890521187614327e-04  -8.0314508502955502e-04  -8.0396632536556493e-04  -7.9078226131513182e-04  -7.6338726020314443e-04  -7.2188273885890816e-04  -6.6661992747839684e-04  -5.9812242001732342e-04  -5.1707031457787417e-04  -4.2414467452525986e-04  -3.2061411398175794e-04  -2.0583603625912920e-04  -7.9346512128675468e-05  5.3540119100850776e-05  1.9219396658285855e-04  3.3524710825034819e-04  4.8019209385476023e-04  6.2458693740629798e-04  7.6559773701210924e-04  8.9999271617315427e-04  1.0244018167815555e-03  1.1351738317113332e-03  1.2287960895802394e-03  1.3016751388931277e-03  1.3510209261511337e-03  1.3738520645130954e-03  1.3694810310349048e-03  1.3358435096117599e-03  1.2744497687226808e-03  1.1868661548149755e-03  1.0762756031136584e-03  9.4614984634595564e-04  8.0173964262443987e-04  6.4824184331475042e-04  4.9124467316121866e-04  3.3580713461114057e-04  1.8660616233798796e-04  4.7104236414976342e-05  -8.0417495032611880e-05  -1.9416969232834421e-04  -2.9171157415823056e-04  -3.7381819079747086e-04  -4.4277774007976342e-04  -4.9949000119357866e-04  -5.4147029676137953e-04  -5.6847204816640087e-04  -5.8039258693536912e-04  -5.7626717798900005e-04  -5.5644843285740809e-04  -5.2226674756151341e-04  -4.7629293242950011e-04  -4.2212626319045098e-04  -3.6380299931430945e-04  -3.0522588577156374e-04  -2.4962935390847871e-04  -1.9931256180772173e-04  -1.5559215323820541e-04  -1.1892096226259113e-04  -8.9086201836340468e-05  -6.5430185670470293e-05  -4.7069752438880828e-05  -3.3055532942338184e-05  -2.2445257336396928e-05  -1.4365364211537986e-05  -8.0547305099980832e-06  -2.8959772002372931e-06  1.5639715154482863e-06  5.6020047074328577e-06  9.3101302029734883e-06  1.2600711765099341e-05  1.5193074376326712e-05  1.6623451573321935e-05  1.6186325831227024e-05  1.3038660543776099e-05  6.4829532937633523e-06  -2.5651981008277235e-07  6.1877207797028461e-06  2.3469764223107152e-05  -6.5373180872023106e-06  -5.3895301600389979e-05  -1.0594261961258430e-04  -1.5520840559422487e-04  -1.9650657410649825e-04  -2.2603076102333447e-04  -2.4157897828483817e-04  -2.4272352366838914e-04  -2.3079641033320341e-04  -2.0857092720597017e-04  -1.7974136317692411e-04  -1.4831630848885732e-04  -1.1806687886641343e-04  -9.2117386481406529e-05  -7.2713139654421836e-05  -6.1149662677551092e-05  -5.7814874271509652e-05  -6.2287479118523456e-05  -7.3450132570349619e-05  -8.9606264782969228e-05  -1.0861350067182380e-04  -1.2806979838405263e-04  -1.4557122801071954e-04  -1.5901785848781356e-04  -1.6690110910421227e-04  -1.6848620102712650e-04  -1.6378285321275952e-04  -1.5320565713732248e-04  -1.3705368611638321e-04  -1.1507627058947382e-04  -8.6204907594106955e-05  -4.8535469752528402e-05  4.6201306190608314e-07  6.3551920521165317e-05  1.4344344786058471e-04  2.4256884316005986e-04  3.6321490447477377e-04  5.0742101495353741e-04  6.7688258972850178e-04  8.7253677002902962e-04  1.0941524170444657e-03  1.3401402141388970e-03  1.6078857501721534e-03  1.8935511823689045e-03  2.1914397209020289e-03  2.4947522250658191e-03  2.7952039332857213e-03  3.0833483250920584e-03  3.3490310747599692e-03  3.5820420698017327e-03  3.7727639708756647e-03  3.9127419180356926e-03  3.9950723755256276e-03  4.0145907130522658e-03  3.9678663988356715e-03  3.8530531427865651e-03  3.6696472694767294e-03  3.4182201772352482e-03  3.1001218828205709e-03  2.7172444622545595e-03  2.2718016532174757e-03  1.7656130206612731e-03  1.2022264048422735e-03  5.8989949949526021e-04  -6.8594241178468460e-05  -7.7251169819661633e-04  -1.5095458142791219e-03  -2.2674356449061870e-03  -3.0332665516275910e-03  -3.7909112874814706e-03  -4.5221498156617721e-03  -5.2066852447286462e-03  -5.8226819410946333e-03  -6.3478035831458701e-03  -6.7604516680059776e-03  -7.0410390737074167e-03  -7.1740771282092003e-03  -7.1493538542068942e-03  -6.9601267695076482e-03  -6.6200562332007096e-03  -6.1306821287825308e-03  -5.5151172263469619e-03  -4.8006805036241969e-03  -4.0162290229330180e-03  -3.1937227467946877e-03  -2.3643404112624550e-03  -1.5562399477480097e-03  -7.9241702564074236e-04  -9.0496558427906627e-05  5.3648897851532650e-04  1.0896405869193122e-03  1.5682493473853387e-03  1.9699163868422574e-03  2.2996733568707373e-03  2.5625714639555203e-03  2.7557516843240552e-03  2.8760015330680532e-03  2.9214834765372089e-03  2.8898717092669607e-03  2.7825014902748807e-03  2.6061196719900852e-03  2.3731550550660208e-03  2.1008559124255943e-03  1.8087804313416200e-03  1.5159347095168266e-03  1.2382918281968666e-03  9.8736825443825581e-04  7.6960375606970543e-04  5.8717022554786221e-04  4.3892641426725350e-04  3.2158122191397096e-04  2.3070516645258798e-04  1.6149533553936932e-04  1.0921294953509187e-04  6.9474632413527490e-05  3.8460693517962907e-05  1.3070135318077278e-05  -8.9719662982625846e-06  -2.9046621395682064e-05  -4.7613915010401106e-05  -6.4210971425917364e-05  -7.7425316476335059e-05  -8.4899564102027461e-05  -8.2936459812343955e-05  -6.7386991780562348e-05  -3.1323870268988666e-05  5.1866185881037434e-06  1.7799662354888507e-05  2.9515353747234363e-05  -9.1175718592624526e-05  -2.6978172372991494e-04  -4.6664488465950949e-04  -6.5333295165735683e-04  -8.0945007934078077e-04  -9.2051116049976219e-04  -9.7842596576901359e-04  -9.8182247488979549e-04  -9.3570872995619027e-04  -8.5026687517943112e-04  -7.3900554807845517e-04  -6.1667249351497039e-04  -4.9731413955457818e-04  -3.9277462465679816e-04  -3.1176335174749984e-04  -2.5946150538428309e-04  -2.3753754988523789e-04  -2.4441024721038159e-04  -2.7563337925653379e-04  -3.2435159598742094e-04  -3.8187308050194834e-04  -4.3842857993660534e-04  -4.8416126422197664e-04  -5.1027530768699755e-04  -5.1008137839330997e-04  -4.7951606632897241e-04  -4.1684269098182124e-04  -3.2157921361851557e-04  -1.9281976479099689e-04  -2.7468340834841197e-05  1.8073877697521239e-04  4.4100515183553396e-04  7.6420907455010314e-04  1.1615179736396868e-03  1.6432724558692574e-03  2.2182979131882569e-03  2.8930271663088589e-03  3.6705804907256976e-03  4.5501471240076774e-03  5.5258293728379475e-03  6.5855821382595431e-03  7.7103645668092809e-03  8.8735177726563027e-03  1.0041727137843551e-02  1.1176776138465315e-02  1.2237293343124414e-02  1.3182125826220324e-02  1.3973225749995750e-02  1.4578266622490742e-02  1.4972465616682147e-02  1.5139445364758005e-02  1.5071153216525385e-02  1.4767025167490131e-02  1.4232652373665673e-02  1.3478225249132380e-02  1.2516986715871569e-02  1.1363867683308410e-02  1.0034400388079720e-02  8.5439902493595378e-03  6.9075169105462129e-03  5.1392754891280276e-03  3.2538285940930324e-03  1.2657003767955523e-03  -8.1123862106313239e-04  -2.9578099522309391e-03  -5.1538793818165958e-03  -7.3806749413416455e-03  -9.6123513090601211e-03  -1.1818423182234646e-02  -1.3963514837754260e-02  -1.6006976002359920e-02  -1.7903667260258396e-02  -1.9604922851770630e-02  -2.1060423376914786e-02  -2.2220690327263717e-02  -2.3040295655317105e-02  -2.3481120285074916e-02  -2.3516360702620902e-02  -2.3134440831295209e-02  -2.2332494167027067e-02  -2.1140203072845875e-02  -1.9591420044681822e-02  -1.7737962069380213e-02  -1.5644424808374021e-02  -1.3380952153456147e-02  -1.1019503795621189e-02  -8.6284387906469771e-03  -6.2685093655036979e-03  -3.9898531089048207e-03  -1.8269826482591514e-03  1.9192055283420150e-04  2.0509668760441391e-03  3.7452509805328171e-03  5.2690937536127146e-03  6.6147905609832596e-03  7.7742417759357777e-03  8.7269309068097288e-03  9.4420569590630467e-03  9.8877600963109599e-03  1.0036450382218294e-02  9.8757903122707619e-03  9.4179491640594901e-03  8.7032289893449293e-03  7.7966771148714892e-03  6.7777242020255982e-03  5.7266670365690589e-03  4.7124203896651952e-03  3.7852457496250235e-03  2.9745933227452374e-03  2.2915085270866172e-03  1.7331940394227485e-03  1.2879728532845698e-03  9.3938716809824948e-04  6.6924006629991433e-04  4.5968077767503062e-04  2.9459925999407698e-04  1.6056607203803556e-04  4.7441361678902717e-05  -5.1309298345339224e-05  -1.3851780731075837e-04  -2.1337165686009153e-04  -2.7149855604562448e-04  -3.0513377557636747e-04  -3.0313915589610767e-04  -2.5292215993321157e-04  -1.4385763035675554e-04  1.1432859281026811e-06  2.4980054105954781e-05  -3.2945624496020099e-05  -2.9333417344687819e-04  -6.5187047536294760e-04  -1.0408473236027645e-03  -1.4070022616475498e-03  -1.7103297373601374e-03  -1.9227890336233075e-03  -2.0293480718046905e-03  -2.0282447840484987e-03  -1.9299363381517377e-03  -1.7545533464709130e-03  -1.5283353972628641e-03  -1.2797177005610058e-03  -1.0357469511478050e-03  -8.1928401163691798e-04  -6.4719342901295809e-04  -5.2947673208355477e-04  -4.6915367453929984e-04  -4.6262827813948402e-04  -5.0034604627223044e-04  -5.6767798998388973e-04  -6.4608661162503017e-04  -7.1471658279679520e-04  -7.5242614025900498e-04  -7.4000211656296210e-04  -6.6204958653164135e-04  -5.0794220161026445e-04  -2.7114870371307379e-04  5.3250248191547948e-05  4.7188101002529158e-04  9.9583034181063542e-04  1.6417777171302465e-03  2.4309884591518383e-03  3.3864887493748495e-03  4.5293176307325371e-03  5.8753684477000911e-03  7.4333266440635495e-03  9.2024803691999231e-03  1.1170311240343886e-02  1.3309580374559031e-02  1.5576928983116798e-02  1.7912450018630025e-02  2.0241527131476752e-02  2.2479702573211018e-02  2.4539096325231421e-02  2.6335917019227918e-02  2.7797807137982900e-02  2.8868853579635270e-02  2.9512567804474085e-02  2.9712222716749798e-02  2.9469120504712006e-02  2.8799417202689966e-02  2.7730228971269241e-02  2.6295655740433060e-02  2.4533179447165428e-02  2.2480713704857408e-02  2.0174420047005003e-02  1.7647284637395656e-02  1.4928382778568342e-02  1.2042700001973673e-02  9.0114302436636162e-03  5.8526096802027682e-03  2.5818296027393063e-03  -7.8509101518274050e-04  -4.2315412370909225e-03  -7.7455726304934682e-03  -1.1309279255845630e-02  -1.4895878006165594e-02  -1.8474618827094051e-02  -2.2006839029100753e-02  -2.5445659999786450e-02  -2.8735594927887097e-02  -3.1812858364679508e-02  -3.4606794462752256e-02  -3.7042230930116750e-02  -3.9043111136980314e-02  -4.0537104867613354e-02  -4.1461175053695003e-02  -4.1767019609594974e-02  -4.1426370182382141e-02  -4.0439039674065806e-02  -3.8822517851981792e-02  -3.6629473429463100e-02  -3.3932426715094569e-02  -3.0820748064964883e-02  -2.7395560228900384e-02  -2.3760499893577966e-02  -2.0014466162606655e-02  -1.6245165326905401e-02  -1.2524380061988619e-02  -8.9078338220410051e-03  -5.4274136387860786e-03  -2.1008615016549176e-03  1.0614008027965650e-03  4.0558786158016126e-03  6.8759098995238264e-03  9.4982084302785673e-03  1.1885604207254159e-02  1.3978805221990898e-02  1.5692968678527076e-02  1.6933271394128306e-02  1.7612612638752551e-02  1.7675642122868124e-02  1.7121232100592274e-02  1.6013388911971346e-02  1.4475449393354985e-02  1.2667750043130165e-02  1.0757020914667136e-02  8.8881757812370524e-03  7.1671435262182833e-03  5.6563184700200008e-03  4.3798142625182000e-03  3.3332620568799921e-03  2.4942002533731196e-03  1.8307963313399789e-03  1.3082805421826902e-03  8.9341311461159519e-04  5.5744336028598358e-04  2.7789943582491410e-04  3.9507513153137231e-05  -1.6555346671475458e-04  -3.3783611930824291e-04  -4.7105774877694972e-04  -5.5270839346929779e-04  -5.6502720542278377e-04  -4.8753289870266030e-04  -3.0246603751872872e-04  -8.1880658235974985e-06  2.9476609297323404e-05  -1.7021092986151422e-04  -6.2232761968550353e-04  -1.2034144994565292e-03  -1.8188677398286186e-03  -2.3894704362243677e-03  -2.8538354169799969e-03  -3.1695560798819726e-03  -3.3152404990866124e-03  -3.2906133322970310e-03  -3.1142642695425812e-03  -2.8191750548080242e-03  -2.4469218803179768e-03  -2.0416372933810723e-03  -1.6446516970723471e-03  -1.2904039566270240e-03  -1.0038205296703134e-03  -7.9903220803997184e-04  -6.7911998889119869e-04  -6.3655347262121212e-04  -6.5409566561697673e-04  -7.0612056042855325e-04  -7.6050770168108162e-04  -7.8124468335637751e-04  -7.3173685238012024e-04  -5.7841599162020553e-04  -2.9363158125269456e-04  1.4347501488514412e-04  7.4863773594455478e-04  1.5363283818303139e-03  2.5246222928915511e-03  3.7386152438896609e-03  5.2100992516058361e-03  6.9732449154999432e-03  9.0582733301802117e-03  1.1484673480949763e-02  1.4255134937001805e-02  1.7350506298249670e-02  2.0725918178863052e-02  2.4307571959006728e-02  2.7993004255500824e-02  3.1655542820931595e-02  3.5154048140463079e-02  3.8346022615654250e-02  4.1101257095879438e-02  4.3313746661080205e-02  4.4909413051829224e-02  4.5848756154800566e-02  4.6125231298565668e-02  4.5760093186440753e-02  4.4795461051530198e-02  4.3286880160618817e-02  4.1296478366999553e-02  3.8887332005780838e-02  3.6119296467993209e-02  3.3046273929339572e-02  2.9714722216998370e-02  2.6163142846128508e-02  2.2422285090721149e-02  1.8515841329204270e-02  1.4461483414433311e-02  1.0272097875035040e-02  5.9572300770462140e-03  1.5248107121736470e-03  -3.0191207916182359e-03  -7.6681071756707578e-03  -1.2405954045504751e-02  -1.7214021683937288e-02  -2.2069721840159411e-02  -2.6939699566811640e-02  -3.1780673840174009e-02  -3.6537101065159262e-02  -4.1140462182733269e-02  -4.5509157220655967e-02  -4.9549468909844484e-02  -5.3158189239629623e-02  -5.6226872158577912e-02  -5.8647980565691010e-02  -6.0322531747042406e-02  -6.1168986089330926e-02  -6.1132075527362710e-02  -6.0188380340152517e-02  -5.8357616115509006e-02  -5.5694962312261627e-02  -5.2294921698759579e-02  -4.8281697784365057e-02  -4.3797991997355588e-02  -3.8993179269348338e-02  -3.4010302798228677e-02  -2.8975081654740855e-02  -2.3988433512331004e-02  -1.9120200480018806e-02  -1.4414559951589362e-02  -9.8865427205886338e-03  -5.5279876477265762e-03  -1.3172607808023403e-03  2.7681519927372513e-03  6.7373865365025912e-03  1.0567399443423336e-02  1.4196661833586878e-02  1.7520937808212071e-02  2.0389149768488397e-02  2.2623740837558685e-02  2.4053533972536109e-02  2.4556127636630232e-02  2.4098565718351388e-02  2.2758759470450283e-02  2.0717379528157234e-02  1.8220781059675024e-02  1.5529312448972717e-02  1.2870116157721484e-02  1.0408667316914706e-02  8.2417572472026079e-03  6.4063719920578388e-03  4.8957742006782851e-03  3.6761142542410469e-03  2.7002991326550217e-03  1.9182801250216736e-03  1.2840303023895305e-03  7.5988984559538432e-04  3.1884493265545372e-04  -5.4690226745137863e-05  -3.6508772045639739e-04  -6.0630734128372952e-04  -7.6301234328883852e-04  -8.1211737465304969e-04  -7.2486931321809746e-04  -4.7087130019428039e-04  -1.8510877876216942e-05  3.2690846714514034e-05  -3.8005339632574814e-04  -1.0805771736197881e-03  -1.9276228848674614e-03  -2.7998258610132079e-03  -3.5909028749991486e-03  -4.2172833073936457e-03  -4.6227067710273391e-03  -4.7816514918273701e-03  -4.6989887451273976e-03  -4.4057616148757877e-03  -3.9519138529814750e-03  -3.3975429222777519e-03  -2.8043099508849546e-03  -2.2282369977251982e-03  -1.7145064976126249e-03  -1.2942969858133423e-03  -9.8332135409782582e-04  -7.8158656449669388e-04  -6.7394430264320151e-04  -6.3122673703633759e-04  -6.1207172976072033e-04  -5.6567464630533938e-04  -4.3579188968446227e-04  -1.6576743274801249e-04  2.9643121129382033e-04  9.9460508048387539e-04  1.9636669506500038e-03  3.2329515940507816e-03  4.8320438673321716e-03  6.7956359058903093e-03  9.1644146562641846e-03  1.1980138065868002e-02  1.5275353769901740e-02  1.9061282968980964e-02  2.3317399146153828e-02  2.7983275882884944e-02  3.2953928224000326e-02  3.8080459688756223e-02  4.3178660616151998e-02  4.8044957321395590e-02  5.2477659543015497e-02  5.6298365608370080e-02  5.9368993294382603e-02  6.1601480844757597e-02  6.2959181511340945e-02  6.3451382395921588e-02  6.3123447446920028e-02  6.2045085647060086e-02  6.0299138109877019e-02  5.7972205142706471e-02  5.5147788111261691e-02  5.1901903308866328e-02  4.8300788749546353e-02  4.4400150558310578e-02  4.0245417672482971e-02  3.5872571180162460e-02  3.1309245366227201e-02  2.6575919149233126e-02  2.1687110016753074e-02  1.6652533357539027e-02  1.1478264074687000e-02  6.1678831193734121e-03  7.2346202066545288e-04  -4.8516475197320896e-03  -1.0551304457087945e-02  -1.6371048338849406e-02  -2.2299694681383705e-02  -2.8316584447237725e-02  -3.4392387355571714e-02  -4.0484790814482169e-02  -4.6536867407270227e-02  -5.2474798517675482e-02  -5.8206603195898335e-02  -6.3622024478952086e-02  -6.8593997229427855e-02  -7.2982392281809305e-02  -7.6640279053695928e-02  -7.9422965081533681e-02  -8.1199303437111583e-02  -8.1864488356049897e-02  -8.1354063849870442e-02  -7.9651708971341967e-02  -7.6800139025799033e-02  -7.2898451577751502e-02  -6.8097316160929747e-02  -6.2586064454176943e-02  -5.6574769029412567e-02  -5.0274486605616044e-02  -4.3878119310803224e-02  -3.7544922872031511e-02  -3.1391200579457698e-02  -2.5483355149324781e-02  -1.9843931561460991e-02  -1.4456037785851755e-02  -9.2779029782675791e-03  -4.2508870539650287e-03  6.8884793079836560e-04  5.5818664188345144e-03  1.0420014059658820e-02  1.5130566619679160e-02  1.9569872067304137e-02  2.3521517984850183e-02  2.6722767612834892e-02  2.8913787762711782e-02  2.9900798026111387e-02  2.9616252012549037e-02  2.8150275542720548e-02  2.5738055607919533e-02  2.2705936126111621e-02  1.9398298281679372e-02  1.6113006462990277e-02  1.3064216460553939e-02  1.0374884253312266e-02  8.0900083122658114e-03  6.1988262448616762e-03  4.6572862365826424e-03  3.4065607410432705e-03  2.3865549412785928e-03  1.5447114641162062e-03  8.4100387840812922e-04  2.5006096908031028e-04  -2.3863488473007931e-04  -6.2166448205360500e-04  -8.8304227134999489e-04  -9.9584966699649779e-04  -9.2325037384623568e-04  -6.2073232145670059e-04  -2.8458031664796566e-05  3.5777570539718842e-05  -6.6059541417117960e-04  -1.6715699894539987e-03  -2.8325678785537491e-03  -3.9922258945040380e-03  -5.0146502275714017e-03  -5.7932851830023177e-03  -6.2596536715031790e-03  -6.3882910177910490e-03  -6.1951794834241587e-03  -5.7303356107159401e-03  -5.0664113075868256e-03  -4.2860057035276128e-03  -3.4700635456649961e-03  -2.6888690553892591e-03  -1.9960689606392896e-03  -1.4254187930336389e-03  -9.8952743973402895e-04  -6.7985754536770810e-04  -4.6751896752946030e-04  -3.0477119439628597e-04  -1.2754947152684385e-04  1.4038324605609046e-04  5.8155247791710340e-04  1.2776439833142087e-03  2.3026624781961524e-03  3.7190978698798229e-03  5.5788115881548845e-03  7.9277644421129907e-03  1.0811767676691984e-02  1.4277990445481271e-02  1.8367977528363191e-02  2.3103415970705705e-02  2.8468876822615796e-02  3.4396290536582656e-02  4.0755476316068150e-02  4.7354331626645658e-02  5.3950590063186324e-02  6.027518205385