<?xml version="1.0"?>
<VTKFile type="UnstructuredGrid"  version="0.1"  >
<UnstructuredGrid>
<Piece  NumberOfPoints="16641" NumberOfCells="16384">
<Points>
<DataArray  type="Float64"  NumberOfComponents="3"  format="ascii">0 0 0  0.0078125 0 0  0.015625 0 0  0.0234375 0 0  0.03125 0 0  0.0390625 0 0  0.046875 0 0  0.0546875 0 0  0.0625 0 0  0.0703125 0 0  0.078125 0 0  0.0859375 0 0  0.09375 0 0  0.1015625 0 0  0.109375 0 0  0.1171875 0 0  0.125 0 0  0.1328125 0 0  0.140625 0 0  0.1484375 0 0  0.15625 0 0  0.1640625 0 0  0.171875 0 0  0.1796875 0 0  0.1875 0 0  0.1953125 0 0  0.203125 0 0  0.2109375 0 0  0.21875 0 0  0.2265625 0 0  0.234375 0 0  0.2421875 0 0  0.25 0 0  0.2578125 0 0  0.265625 0 0  0.2734375 0 0  0.28125 0 0  0.2890625 0 0  0.296875 0 0  0.3046875 0 0  0.3125 0 0  0.3203125 0 0  0.328125 0 0  0.3359375 0 0  0.34375 0 0  0.3515625 0 0  0.359375 0 0  0.3671875 0 0  0.375 0 0  0.3828125 0 0  0.390625 0 0  0.3984375 0 0  0.40625 0 0  0.4140625 0 0  0.421875 0 0  0.4296875 0 0  0.4375 0 0  0.4453125 0 0  0.453125 0 0  0.4609375 0 0  0.46875 0 0  0.4765625 0 0  0.484375 0 0  0.4921875 0 0  0.5 0 0  0.5078125 0 0  0.515625 0 0  0.5234375 0 0  0.53125 0 0  0.5390625 0 0  0.546875 0 0  0.5546875 0 0  0.5625 0 0  0.5703125 0 0  0.578125 0 0  0.5859375 0 0  0.59375 0 0  0.6015625 0 0  0.609375 0 0  0.6171875 0 0  0.625 0 0  0.6328125 0 0  0.640625 0 0  0.6484375 0 0  0.65625 0 0  0.6640625 0 0  0.671875 0 0  0.6796875 0 0  0.6875 0 0  0.6953125 0 0  0.703125 0 0  0.7109375 0 0  0.71875 0 0  0.7265625 0 0  0.734375 0 0  0.7421875 0 0  0.75 0 0  0.7578125 0 0  0.765625 0 0  0.7734375 0 0  0.78125 0 0  0.7890625 0 0  0.796875 0 0  0.8046875 0 0  0.8125 0 0  0.8203125 0 0  0.828125 0 0  0.8359375 0 0  0.84375 0 0  0.8515625 0 0  0.859375 0 0  0.8671875 0 0  0.875 0 0  0.8828125 0 0  0.890625 0 0  0.8984375 0 0  0.90625 0 0  0.9140625 0 0  0.921875 0 0  0.9296875 0 0  0.9375 0 0  0.9453125 0 0  0.953125 0 0  0.9609375 0 0  0.96875 0 0  0.9765625 0 0  0.984375 0 0  0.9921875 0 0  1 0 0  0 0.0078125 0  0.0078125 0.0078125 0  0.015625 0.0078125 0  0.0234375 0.0078125 0  0.03125 0.0078125 0  0.0390625 0.0078125 0  0.046875 0.0078125 0  0.0546875 0.0078125 0  0.0625 0.0078125 0  0.0703125 0.0078125 0  0.078125 0.0078125 0  0.0859375 0.0078125 0  0.09375 0.0078125 0  0.1015625 0.0078125 0  0.109375 0.0078125 0  0.1171875 0.0078125 0  0.125 0.0078125 0  0.1328125 0.0078125 0  0.140625 0.0078125 0  0.1484375 0.0078125 0  0.15625 0.0078125 0  0.1640625 0.0078125 0  0.171875 0.0078125 0  0.1796875 0.0078125 0  0.1875 0.0078125 0  0.1953125 0.0078125 0  0.203125 0.0078125 0  0.2109375 0.0078125 0  0.21875 0.0078125 0  0.2265625 0.0078125 0  0.234375 0.0078125 0  0.2421875 0.0078125 0  0.25 0.0078125 0  0.2578125 0.0078125 0  0.265625 0.0078125 0  0.2734375 0.0078125 0  0.28125 0.0078125 0  0.2890625 0.0078125 0  0.296875 0.0078125 0  0.3046875 0.0078125 0  0.3125 0.0078125 0  0.3203125 0.0078125 0  0.328125 0.0078125 0  0.3359375 0.0078125 0  0.34375 0.0078125 0  0.3515625 0.0078125 0  0.359375 0.0078125 0  0.3671875 0.0078125 0  0.375 0.0078125 0  0.3828125 0.0078125 0  0.390625 0.0078125 0  0.3984375 0.0078125 0  0.40625 0.0078125 0  0.4140625 0.0078125 0  0.421875 0.0078125 0  0.4296875 0.0078125 0  0.4375 0.0078125 0  0.4453125 0.0078125 0  0.453125 0.0078125 0  0.4609375 0.0078125 0  0.46875 0.0078125 0  0.4765625 0.0078125 0  0.484375 0.0078125 0  0.4921875 0.0078125 0  0.5 0.0078125 0  0.5078125 0.0078125 0  0.515625 0.0078125 0  0.5234375 0.0078125 0  0.53125 0.0078125 0  0.5390625 0.0078125 0  0.546875 0.0078125 0  0.5546875 0.0078125 0  0.5625 0.0078125 0  0.5703125 0.0078125 0  0.578125 0.0078125 0  0.5859375 0.0078125 0  0.59375 0.0078125 0  0.6015625 0.0078125 0  0.609375 0.0078125 0  0.6171875 0.0078125 0  0.625 0.0078125 0  0.6328125 0.0078125 0  0.640625 0.0078125 0  0.6484375 0.0078125 0  0.65625 0.0078125 0  0.6640625 0.0078125 0  0.671875 0.0078125 0  0.6796875 0.0078125 0  0.6875 0.0078125 0  0.6953125 0.0078125 0  0.703125 0.0078125 0  0.7109375 0.0078125 0  0.71875 0.0078125 0  0.7265625 0.0078125 0  0.734375 0.0078125 0  0.7421875 0.0078125 0  0.75 0.0078125 0  0.7578125 0.0078125 0  0.765625 0.0078125 0  0.7734375 0.0078125 0  0.78125 0.0078125 0  0.7890625 0.0078125 0  0.796875 0.0078125 0  0.8046875 0.0078125 0  0.8125 0.0078125 0  0.8203125 0.0078125 0  0.828125 0.0078125 0  0.8359375 0.0078125 0  0.84375 0.0078125 0  0.8515625 0.0078125 0  0.859375 0.0078125 0  0.8671875 0.0078125 0  0.875 0.0078125 0  0.8828125 0.0078125 0  0.890625 0.0078125 0  0.8984375 0.0078125 0  0.90625 0.0078125 0  0.9140625 0.0078125 0  0.921875 0.0078125 0  0.9296875 0.0078125 0  0.9375 0.0078125 0  0.9453125 0.0078125 0  0.953125 0.0078125 0  0.9609375 0.0078125 0  0.96875 0.0078125 0  0.9765625 0.0078125 0  0.984375 0.0078125 0  0.9921875 0.0078125 0  1 0.0078125 0  0 0.015625 0  0.0078125 0.015625 0  0.015625 0.015625 0  0.0234375 0.015625 0  0.03125 0.015625 0  0.0390625 0.015625 0  0.046875 0.015625 0  0.0546875 0.015625 0  0.0625 0.015625 0  0.0703125 0.015625 0  0.078125 0.015625 0  0.0859375 0.015625 0  0.09375 0.015625 0  0.1015625 0.015625 0  0.109375 0.015625 0  0.1171875 0.015625 0  0.125 0.015625 0  0.1328125 0.015625 0  0.140625 0.015625 0  0.1484375 0.015625 0  0.15625 0.015625 0  0.1640625 0.015625 0  0.171875 0.015625 0  0.1796875 0.015625 0  0.1875 0.015625 0  0.1953125 0.015625 0  0.203125 0.015625 0  0.2109375 0.015625 0  0.21875 0.015625 0  0.2265625 0.015625 0  0.234375 0.015625 0  0.2421875 0.015625 0  0.25 0.015625 0  0.2578125 0.015625 0  0.265625 0.015625 0  0.2734375 0.015625 0  0.28125 0.015625 0  0.2890625 0.015625 0  0.296875 0.015625 0  0.3046875 0.015625 0  0.3125 0.015625 0  0.3203125 0.015625 0  0.328125 0.015625 0  0.3359375 0.015625 0  0.34375 0.015625 0  0.3515625 0.015625 0  0.359375 0.015625 0  0.3671875 0.015625 0  0.375 0.015625 0  0.3828125 0.015625 0  0.390625 0.015625 0  0.3984375 0.015625 0  0.40625 0.015625 0  0.4140625 0.015625 0  0.421875 0.015625 0  0.4296875 0.015625 0  0.4375 0.015625 0  0.4453125 0.015625 0  0.453125 0.015625 0  0.4609375 0.015625 0  0.46875 0.015625 0  0.4765625 0.015625 0  0.484375 0.015625 0  0.4921875 0.015625 0  0.5 0.015625 0  0.5078125 0.015625 0  0.515625 0.015625 0  0.5234375 0.015625 0  0.53125 0.015625 0  0.5390625 0.015625 0  0.546875 0.015625 0  0.5546875 0.015625 0  0.5625 0.015625 0  0.5703125 0.015625 0  0.578125 0.015625 0  0.5859375 0.015625 0  0.59375 0.015625 0  0.6015625 0.015625 0  0.609375 0.015625 0  0.6171875 0.015625 0  0.625 0.015625 0  0.6328125 0.015625 0  0.640625 0.015625 0  0.6484375 0.015625 0  0.65625 0.015625 0  0.6640625 0.015625 0  0.671875 0.015625 0  0.6796875 0.015625 0  0.6875 0.015625 0  0.6953125 0.015625 0  0.703125 0.015625 0  0.7109375 0.015625 0  0.71875 0.015625 0  0.7265625 0.015625 0  0.734375 0.015625 0  0.7421875 0.015625 0  0.75 0.015625 0  0.7578125 0.015625 0  0.765625 0.015625 0  0.7734375 0.015625 0  0.78125 0.015625 0  0.7890625 0.015625 0  0.796875 0.015625 0  0.8046875 0.015625 0  0.8125 0.015625 0  0.8203125 0.015625 0  0.828125 0.015625 0  0.8359375 0.015625 0  0.84375 0.015625 0  0.8515625 0.015625 0  0.859375 0.015625 0  0.8671875 0.015625 0  0.875 0.015625 0  0.8828125 0.015625 0  0.890625 0.015625 0  0.8984375 0.015625 0  0.90625 0.015625 0  0.9140625 0.015625 0  0.921875 0.015625 0  0.9296875 0.015625 0  0.9375 0.015625 0  0.9453125 0.015625 0  0.953125 0.015625 0  0.9609375 0.015625 0  0.96875 0.015625 0  0.9765625 0.015625 0  0.984375 0.015625 0  0.9921875 0.015625 0  1 0.015625 0  0 0.0234375 0  0.0078125 0.0234375 0  0.015625 0.0234375 0  0.0234375 0.0234375 0  0.03125 0.0234375 0  0.0390625 0.0234375 0  0.046875 0.0234375 0  0.0546875 0.0234375 0  0.0625 0.0234375 0  0.0703125 0.0234375 0  0.078125 0.0234375 0  0.0859375 0.0234375 0  0.09375 0.0234375 0  0.1015625 0.0234375 0  0.109375 0.0234375 0  0.1171875 0.0234375 0  0.125 0.0234375 0  0.1328125 0.0234375 0  0.140625 0.0234375 0  0.1484375 0.0234375 0  0.15625 0.0234375 0  0.1640625 0.0234375 0  0.171875 0.0234375 0  0.1796875 0.0234375 0  0.1875 0.0234375 0  0.1953125 0.0234375 0  0.203125 0.0234375 0  0.2109375 0.0234375 0  0.21875 0.0234375 0  0.2265625 0.0234375 0  0.234375 0.0234375 0  0.2421875 0.0234375 0  0.25 0.0234375 0  0.2578125 0.0234375 0  0.265625 0.0234375 0  0.2734375 0.0234375 0  0.28125 0.0234375 0  0.2890625 0.0234375 0  0.296875 0.0234375 0  0.3046875 0.0234375 0  0.3125 0.0234375 0  0.3203125 0.0234375 0  0.328125 0.0234375 0  0.3359375 0.0234375 0  0.34375 0.0234375 0  0.3515625 0.0234375 0  0.359375 0.0234375 0  0.3671875 0.0234375 0  0.375 0.0234375 0  0.3828125 0.0234375 0  0.390625 0.0234375 0  0.3984375 0.0234375 0  0.40625 0.0234375 0  0.4140625 0.0234375 0  0.421875 0.0234375 0  0.4296875 0.0234375 0  0.4375 0.0234375 0  0.4453125 0.0234375 0  0.453125 0.0234375 0  0.4609375 0.0234375 0  0.46875 0.0234375 0  0.4765625 0.0234375 0  0.484375 0.0234375 0  0.4921875 0.0234375 0  0.5 0.0234375 0  0.5078125 0.0234375 0  0.515625 0.0234375 0  0.5234375 0.0234375 0  0.53125 0.0234375 0  0.5390625 0.0234375 0  0.546875 0.0234375 0  0.5546875 0.0234375 0  0.5625 0.0234375 0  0.5703125 0.0234375 0  0.578125 0.0234375 0  0.5859375 0.0234375 0  0.59375 0.0234375 0  0.6015625 0.0234375 0  0.609375 0.0234375 0  0.6171875 0.0234375 0  0.625 0.0234375 0  0.6328125 0.0234375 0  0.640625 0.0234375 0  0.6484375 0.0234375 0  0.65625 0.0234375 0  0.6640625 0.0234375 0  0.671875 0.0234375 0  0.6796875 0.0234375 0  0.6875 0.0234375 0  0.6953125 0.0234375 0  0.703125 0.0234375 0  0.7109375 0.0234375 0  0.71875 0.0234375 0  0.7265625 0.0234375 0  0.734375 0.0234375 0  0.7421875 0.0234375 0  0.75 0.0234375 0  0.7578125 0.0234375 0  0.765625 0.0234375 0  0.7734375 0.0234375 0  0.78125 0.0234375 0  0.7890625 0.0234375 0  0.796875 0.0234375 0  0.8046875 0.0234375 0  0.8125 0.0234375 0  0.8203125 0.0234375 0  0.828125 0.0234375 0  0.8359375 0.0234375 0  0.84375 0.0234375 0  0.8515625 0.0234375 0  0.859375 0.0234375 0  0.8671
[...]
<PointData  Scalars="u_sol"> 
<DataArray  type="Float64"  Name="u_sol"  format="ascii">1.2837182177661553e-06  -5.5422734486361604e-06  -1.6538221637378918e-05  -2.2174702553871339e-05  -2.2270270380003128e-05  -1.7139750004887324e-05  -7.5088745954530844e-06  5.6217320557471659e-06  2.0949850989042806e-05  3.7022678003052036e-05  5.2438393610331599e-05  6.6051104597726268e-05  7.7116974605824672e-05  8.5354201668884374e-05  9.0917671103285896e-05  9.4312642344886484e-05  9.6281193920925008e-05  9.7690863783796654e-05  9.9444330862957507e-05  1.0241515240712079e-04  1.0740408995175692e-04  1.1510634792144787e-04  1.2608222665054611e-04  1.4073191398898723e-04  1.5928620879004043e-04  1.8182479741411450e-04  2.0834520569880507e-04  2.3887292466264856e-04  2.7357401200410312e-04  3.1288247328541797e-04  3.5758970318865841e-04  4.0868779622983448e-04  4.6737947484625696e-04  5.3509589236392459e-04  6.1319013289015158e-04  7.0255625385057588e-04  8.0426476221473226e-04  9.1923481014027821e-04  1.0484170244626464e-03  1.1908651607858817e-03  1.3456927924896554e-03  1.5128868915697318e-03  1.6897437711438357e-03  1.8732881386731477e-03  2.0588233293673277e-03  2.2357738811478686e-03  2.3954411392831678e-03  2.5304162702071940e-03  2.6299387973763074e-03  2.6837364525076966e-03  2.6817874977641794e-03  2.6153092030393532e-03  2.4772654240722693e-03  2.2628614739864414e-03  1.9698314262417719e-03  1.5985923895093122e-03  1.1522696600559080e-03  6.3663375692100455e-04  5.9975361286924457e-05  -5.6705536413634099e-04  -1.2316240790666161e-03  -1.9189043471409743e-03  -2.6122951450775968e-03  -3.2938174997030772e-03  -3.9430779531102137e-03  -4.5351639544437220e-03  -5.0591333723849748e-03  -5.4952300229014961e-03  -5.8104637810126175e-03  -5.9831101948772175e-03  -5.9923438593025074e-03  -5.8212868619987963e-03  -5.4583197590392296e-03  -4.8989465201544086e-03  -4.1474601477761641e-03  -3.2182292117543311e-03  -2.1365794858291937e-03  -9.3785024926067303e-04  3.3134339417893055e-04  1.6254940021460200e-03  2.8649090657711348e-03  4.0186009759339168e-03  5.0533675395878705e-03  5.8927801341403813e-03  6.5209610323209242e-03  6.9286584554375391e-03  7.1143310586062967e-03  7.0931096643745764e-03  6.8883603357649025e-03  6.5322933635116511e-03  6.0553225674367600e-03  5.5009614636464445e-03  4.9045869033351669e-03  4.2717336271247798e-03  3.6289639614820704e-03  3.0026573715381932e-03  2.4028884931260371e-03  1.8448672051277904e-03  1.3405547286781626e-03  8.9894773151987602e-04  5.2672389270321614e-04  2.2703869386453548e-04  -9.8658390193555906e-07  -1.6233510116129445e-04  -2.6546843864477479e-04  -3.2114257933009210e-04  -3.4086126847123876e-04  -3.3538776504988665e-04  -3.1412472148222541e-04  -2.8445847092715374e-04  -2.5154369142190976e-04  -2.1874767640199980e-04  -1.8805633663968716e-04  -1.6055856854150659e-04  -1.3665617772140151e-04  -1.1633203059850521e-04  -9.9315710148631449e-05  -8.5165066645546424e-05  -7.3329565994949180e-05  -6.3197661523384680e-05  -5.4138431729192742e-05  -4.5551539183959143e-05  -3.6916344972258554e-05  -2.7874583305873971e-05  -1.8274191219617931e-05  -8.5331908129785848e-06  4.9420678686318017e-07  4.3486649978912450e-06  4.8537761901592228e-07  2.0214793283011528e-06  -1.7729722979825996e-05  -1.2409806521133955e-05  7.4991000219813209e-05  2.6523573768958943e-04  5.6033846972906474e-04  9.4894161131827554e-04  1.4105268504043141e-03  1.9185271356258668e-03  2.4437976118351066e-03  2.9581174505587697e-03  3.4373304759988963e-03  3.8636799303526596e-03  4.2270797787052287e-03  4.5252857272741996e-03  4.7631249853949216e-03  4.9510603366254013e-03  5.1033943605845221e-03  5.2363739509915684e-03  5.3663735294810916e-03  5.5082531907521565e-03  5.6739369121590923e-03  5.8712561664613925e-03  6.1031420089619603e-03  6.3672902650315239e-03  6.6564196868317315e-03  6.9591253224490779e-03  7.2612354703365913e-03  7.5472774491193682e-03  7.8014670441288979e-03  8.0081551369840208e-03  8.1513609075093453e-03  8.2126376767808016e-03  8.1695352802640224e-03  7.9950866326495510e-03  7.6562304441959994e-03  7.1122048175663172e-03  6.3183316144980513e-03  5.2272668002889926e-03  3.7897650188376143e-03  1.9471774871451513e-03  -3.6475249352083621e-04  -3.2000817211289331e-03  -6.6056180401363809e-03  -1.0618269771826576e-02  -1.5258475434591294e-02  -2.0535764349083274e-02  -2.6442949086481763e-02  -3.2948718872459676e-02  -4.0000885002220293e-02  -4.7526508913839527e-02  -5.5434112513079233e-02  -6.3616450352537796e-02  -7.1954100488480305e-02  -8.0319345663078995e-02  -8.8580043721000284e-02  -9.6603137009137571e-02  -1.0425759151128353e-01  -1.1141665916470488e-01  -1.1795947829370218e-01  -1.2377211481798468e-01  -1.2874820535975362e-01  -1.3278937984031683e-01  -1.3580555183184542e-01  -1.3771594528751627e-01  -1.3845109192727803e-01  -1.3793587494325510e-01  -1.3611622908666049e-01  -1.3296557150880672e-01  -1.2846397840110868e-01  -1.2261241952434138e-01  -1.1543295718097145e-01  -1.0697275201651837e-01  -9.7306349127801173e-02  -8.6538083993393272e-02  -7.4803298466306845e-02  -6.2268243282718384e-02  -4.9128918102665703e-02  -3.5605402321817504e-02  -2.1943406240304660e-02  -8.3788803373672054e-03  4.7986669443356306e-03  1.7324361809847078e-02  2.9005395926141535e-02  3.9625698708313256e-02  4.9009278117304413e-02  5.7030829261023298e-02  6.3608983428917618e-02  6.8711337405931355e-02  7.2346816227717492e-02  7.4567091793882712e-02  7.5439512607755541e-02  7.5058873223671246e-02  7.3573648698171637e-02  7.1107689702551533e-02  6.7767712561093166e-02  6.3683140984110778e-02  5.8982904906196780e-02  5.3802297307131458e-02  4.8288072196303940e-02  4.2597640818527148e-02  3.6895780671328759e-02  3.1346377631956322e-02  2.6100591131208332e-02  2.1284046471299917e-02  1.6986537126505691e-02  1.3256788327658852e-02  1.0103400358569868e-02  7.5016735542787752e-03  5.4029062258258379e-03  3.7442481918308936e-03  2.4575479011382721e-03  1.4761384538577579e-03  7.3962693007497283e-04  1.9600198884533551e-04  -1.9761177223171698e-04  -4.7497710455498892e-04  -6.6146489075271633e-04  -7.7521446512897611e-04  -8.2857146662582799e-04  -8.2973039314367223e-04  -7.8448196136669281e-04  -6.9802858989761898e-04  -5.7684921719078353e-04  -4.3065032446831835e-04  -2.7445997200193219e-04  -1.3061397948045344e-04  -2.9426085105631993e-05  6.0466472100118083e-06  -2.0559992178120851e-06  5.3674425047432973e-06  8.7163844464273633e-05  3.0454239819787012e-04  6.8406864926394157e-04  1.2277274314986667e-03  1.9168926239892538e-03  2.7183584452407338e-03  3.5896983361721731e-03  4.4848931708208256e-03  5.3596915915682507e-03  6.1762222664886041e-03  6.9063565875969474e-03  7.5335535074580306e-03  8.0531550517868884e-03  8.4713343612371535e-03  8.8030369149878895e-03  9.0692844070098186e-03  9.2942080560128575e-03  9.5020836481962984e-03  9.7145401655496354e-03  9.9480803880186153e-03  1.0212049600105341e-02  1.0507200547474454e-02  1.0825035354947266e-02  1.1148108646165972e-02  1.1451261920438971e-02  1.1703343289584282e-02  1.1869282065828018e-02  1.1911495724759885e-02  1.1789321837872895e-02  1.1457694067312122e-02  1.0865537683696800e-02  9.9522622970034634e-03  8.6481010126074499e-03  6.8764412001267291e-03  4.5511744586319560e-03  1.5687349104690593e-03  -2.1788188227844160e-03  -6.7919284813772090e-03  -1.2351864387667182e-02  -1.8921516691057270e-02  -2.6553932529348904e-02  -3.5270003825469722e-02  -4.5051572279646040e-02  -5.5841755608911824e-02  -6.7537301844425718e-02  -7.9993900865919051e-02  -9.3035123608657996e-02  -1.0645851209835359e-01  -1.2004640159726143e-01  -1.3357626027476455e-01  -1.4683048796184378e-01  -1.5960421290362448e-01  -1.7171085818073129e-01  -1.8298535760248599e-01  -1.9328535145837883e-01  -2.0249078509291560e-01  -2.1050240914842572e-01  -2.1723962463323315e-01  -2.2263804892174183e-01  -2.2664706128144566e-01  -2.2922756233395472e-01  -2.3034998133292173e-01  -2.2999329407055283e-01  -2.2814245036217065e-01  -2.2480552259084541e-01  -2.1999345348012103e-01  -2.1371364068885179e-01  -2.0598896717223950e-01  -1.9685094889654664e-01  -1.8634514366206034e-01  -1.7453205426460056e-01  -1.6149051704587444e-01  -1.4731971110867084e-01  -1.3214147926476694e-01  -1.1610162534303714e-01  -9.9370096905367494e-02  -8.2141054891675738e-02  -6.4627399187114132e-02  -4.7069143893044049e-02  -2.9681540215645400e-02  -1.2701330618127952e-02  3.6086087769111506e-03  1.9036926024343308e-02  3.3389800235968187e-02  4.6496087085385412e-02  5.8218339415964188e-02  6.8452683511708426e-02  7.7130974259325483e-02  8.4212396510552026e-02  8.9694652340798722e-02  9.3592646084744310e-02  9.5894283982313630e-02  9.6647307683723968e-02  9.5947264703233254e-02  9.3860318667755599e-02  9.0463956186682126e-02  8.5861487751586793e-02  8.0183219632560490e-02  7.3597678859916540e-02  6.6317514132051017e-02  5.8597274289992875e-02  5.0720422663516548e-02  4.2976166674981262e-02  3.5630257427751846e-02  2.8897503756129046e-02  2.2923360312190708e-02  1.7778274386769585e-02  1.3465019896425220e-02  9.9345019697471750e-03  7.1048616122580737e-03  4.8787184078776949e-03  3.1557706888796218e-03  1.8421353405181108e-03  8.5601543455464575e-04  1.2977114724279851e-04  -3.9009104233582372e-04  -7.4413396835426159e-04  -9.6216610084572422e-04  -1.0659061974844818e-03  -1.0719166636440093e-03  -9.9459633597659565e-04  -8.4911301006485723e-04  -6.5425553261147333e-04  -4.3482791477265784e-04  -2.2369520569124308e-04  -5.8924256312928137e-05  1.0824246008908130e-05  -8.1842287495180609e-06  3.8616683159459962e-05  2.1952018380404944e-04  5.8196766236973943e-04  1.1476567752431838e-03  1.9126607989204904e-03  2.8502273628742375e-03  3.9166017027428288e-03  5.0577828023345124e-03  6.2165600824497114e-03  7.3390151746021114e-03  8.3798269158307931e-03  9.3058977584068656e-03  1.0098114829209437e-02  1.0751360059266760e-02  1.1273027685174587e-02  1.1680428851050443e-02  1.1997509101722306e-02  1.2251226193241458e-02  1.2467852778644324e-02  1.2669417719182978e-02  1.2870461642374398e-02  1.3075302718295101e-02  1.3276104987017475e-02  1.3451941244491356e-02  1.3569005602257900e-02  1.3582102121275710e-02  1.3436851688011770e-02  1.3070996040624281e-02  1.2414958651201279e-02  1.1390915822171502e-02  9.9125671656887654e-03  7.8851624735847246e-03  5.2006227892456717e-03  1.7275640709730580e-03  -2.6792406865058086e-03  -8.1586118965295187e-03  -1.4829911115639275e-02  -2.2801935573020862e-02  -3.2163572162313081e-02  -4.2962671529749079e-02  -5.5192072394399938e-02  -6.8774781179011382e-02  -8.3571468325787629e-02  -9.9382086640674147e-02  -1.1595276667145422e-01  -1.3299396024207927e-01  -1.5019966563081460e-01  -1.6726701581290643e-01  -1.8391353344090236e-01  -1.9988922119050020e-01  -2.1498410299204609e-01  -2.2903077034996158e-01  -2.4190315251105110e-01  -2.5351248858578496e-01  -2.6380171609475350e-01  -2.7273919098075944e-01  -2.8031247452073405e-01  -2.8652264156639246e-01  -2.9137937665757169e-01  -2.9489695255835485e-01  -2.9709111355750534e-01  -2.9797676123674621e-01  -2.9756659854920764e-01  -2.9586995998246207e-01  -2.9289597037135712e-01  -2.8864020950635122e-01  -2.8309401356196318e-01  -2.7625437640377470e-01  -2.6811711654705678e-01  -2.5868349667540713e-01  -2.4796151144714790e-01  -2.3597058871675816e-01  -2.2274494936421443e-01  -2.0833817238063312e-01  -1.9282692680598512e-01  -1.7631452720155244e-01  -1.5893325411239762e-01  -1.4084468112853402e-01  -1.2223908085800753e-01  -1.0332543733939244e-01  -8.4340577919990792e-02  -6.5523008383552975e-02  -4.7103792316900456e-02  -2.9312535260567887e-02  -1.2349791799389637e-02  3.6142487519618426e-03  1.8443019693315032e-02  3.2035024095853730e-02  4.4320152172198431e-02  5.5256937053120202e-02  6.4819898249054292e-02  7.2997828879506538e-02  7.9805607825755617e-02  8.5207551035443183e-02  8.9139422647711866e-02  9.1586697437357228e-02  9.2533655318023406e-02  9.1953921506125982e-02  8.9841289654658263e-02  8.6227601060075043e-02  8.1203481914456310e-02  7.4936845856535234e-02  6.7681133091314155e-02  5.9765720819627687e-02  5.1567125129799794e-02  4.3465329225566798e-02  3.5796630146762376e-02  2.8816502764918164e-02  2.2681625758879234e-02  1.7452716908023212e-02  1.3112153962819643e-02  9.5886523062768472e-03  6.7823179518464735e-03  4.5840957057142386e-03  2.8884099058603132e-03  1.6012673290613560e-03  6.4416025753710965e-04  -4.5702243985172103e-05  -5.1698155724725812e-04  -8.0700547691381699e-04  -9.4514026336993363e-04  -9.5632918240038842e-04  -8.6450794305172648e-04  -6.9572929433545008e-04  -4.8065750432367961e-04  -2.5686238450553430e-04  -6.9908921916226311e-05  1.2903719069834397e-05  -1.4426165717784957e-05  7.0847601452015018e-05  3.5329873670396394e-04  8.6443158534019811e-04  1.6145914607802949e-03  2.5888634504510292e-03  3.7487287174298128e-03  5.0381134609090387e-03  6.3912693936281672e-03  7.7411320595265490e-03  9.0267870596938103e-03  1.0199121694193342e-02  1.1224221108723162e-02  1.2084443596444946e-02  1.2777460627478946e-02  1.3313822488587083e-02  1.3713551662282417e-02  1.4002169976201795e-02  1.4206462074339201e-02  1.4350205262671487e-02  1.4450032472623308e-02  1.4511585396197551e-02  1.4526214868191551e-02  1.4468678784303347e-02  1.4296271755896378e-02  1.3949305781413670e-02  1.3352534687086328e-02  1.2416624064478967e-02  1.1039820101796261e-02  9.1109770655827364e-03  6.5097493820929558e-03  3.0932589377317041e-03  -1.3066484755654190e-03  -6.8636521591094240e-03  -1.3739683517041494e-02  -2.2090004357490072e-02  -3.2054730135910467e-02  -4.3732019026773906e-02  -5.7150873386262527e-02  -7.2258423070207273e-02  -8.8915633446145809e-02  -1.0689213008551512e-01  -1.2588026409280534e-01  -1.4551660123137322e-01  -1.6541228725182425e-01  -1.8518425486585463e-01  -2.0448226831806943e-01  -2.2300871205562739e-01  -2.4052934102390211e-01  -2.5687549589928282e-01  -2.7193955008343623e-01  -2.8566590007094977e-01  -2.9803981355116521e-01  -3.0907590905162391e-01  -3.1880757193314602e-01  -3.2727800946685287e-01  -3.3453323736590995e-01  -3.4061695382691837e-01  -3.4556708148213555e-01  -3.4941366343291191e-01  -3.5217779174333902e-01  -3.5387126964615262e-01  -3.5449676232215860e-01  -3.5404819217538580e-01  -3.5251102186206357e-01  -3.4986029639298594e-01  -3.4607015639871735e-01  -3.4111309972239745e-01  -3.3495682295644369e-01  -3.2756954408992256e-01  -3.1892041112524006e-01  -3.0898327561512468e-01  -2.9773951912833418e-01  -2.8518264671268723e-01  -2.7132283140045488e-01  -2.5619246027009818e-01  -2.3985151565237242e-01  -2.2239277763535431e-01  -2.0394590594633019e-01  -1.8467904419503153e-01  -1.6479991374372155e-01  -1.4454676544903372e-01  -1.2418431548167128e-01  -1.0399058689835225e-01  -8.4237891615040000e-02  -6.5180186206330620e-02  -4.7034431968110947e-02  -2.9970010950736335e-02  -1.4103188422159867e-02  5.0330666943908524e-04  1.3833094884091198e-02  2.5905566185007011e-02  3.6761165181213667e-02  4.6439180173437768e-02  5.4993034627021341e-02  6.2449430386452474e-02  6.8756341446364666e-02  7.3835025050167549e-02  7.7596581824904948e-02  7.9927717501149284e-02  8.0709366915610203e-02  7.9848617169737277e-02  7.7315140754387224e-02  7.3174801370899739e-02  6.7613422053493133e-02  6.0937256686987816e-02  5.3545314738394259e-02  4.5877295987851355e-02  3.8351050657243146e-02  3.1308372876046070e-02  2.4983330353816221e-02  1.9497540776949110e-02  1.4876721951336757e-02  1.1077518580310520e-02  8.0158058849966445e-03  5.5907836023080526e-03  3.7010234377558883e-03  2.2538273251835133e-03  1.1701347109125092e-03  3.8536904010861097e-04  -1.5217505524661051e-04  -4.8416466310592307e-04  -6.4561311814756710e-04  -6.6826350185517167e-04  -5.8378459727082997e-04  -4.2654070212360372e-04  -2.3716978637052094e-04  -6.6283943066534236e-05  1.2235109956727248e-05  -2.0361190315079455e-05  1.0061969600521124e-04  4.8303194590548028e-04  1.1455216471258512e-03  2.0839187062497455e-03  3.2675574856336634e-03  4.6412226051818339e-03  6.1323655222450084e-03  7.6607713686774890e-03  9.1485868431648229e-03  1.0528867878841632e-02  1.1751375761557959e-02  1.2785134402991836e-02  1.3618084210660667e-02  1.4254498134950083e-02  1.4710933836081252e-02  1.5011447489257533e-02  1.5182592956655399e-02  1.5248452452753266e-02  1.5225702341753980e-02  1.5118850006982692e-02  1.4915953410014594e-02  1.4585093779488056e-02  1.4071807231388843e-02  1.3298621065675630e-02  1.2166033238483014e-02  1.0554677309578158e-02  8.3314084121943743e-03  5.3494217478921710e-03  1.4365387231504336e-03  -3.6025441422436405e-03  -9.9631124889949640e-03  -1.7838544385662305e-02  -2.7422939086191915e-02  -3.8884011310343927e-02  -5.2324830436199919e-02  -6.7761287139562823e-02  -8.5105721358658667e-02  -1.0415379393428884e-01  -1.2458873912127107e-01  -1.4600294183606530e-01  -1.6793585871811290e-01  -1.8991682423797618e-01  -2.1150742620628543e-01  -2.3233444757692706e-01  -2.5210930438282175e-01  -2.7063349280867149e-01  -2.8779266967188671e-01  -3.0354301955026580e-01  -3.1789395540269183e-01  -3.3089045701505077e-01  -3.4259740661331634e-01  -3.5308715570182880e-01  -3.6243066523084688e-01  -3.7069193074840318e-01  -3.7792506915941604e-01  -3.8417333074666560e-01  -3.8946934319460091e-01  -3.9383601785905881e-01  -3.9728769944504944e-01  -3.9983128458266864e-01  -4.0146714562801195e-01  -4.0218979894093743e-01  -4.0198817482764787e-01  -4.0084596720612498e-01  -3.9874390527068082e-01  -3.9565556844493882e-01  -3.9154762560716738e-01  -3.8638166623853049e-01  -3.8011304937649754e-01  -3.7269273323304120e-01  -3.6406816786664065e-01  -3.5418612148235507e-01  -3.4299587439626233e-01  -3.3045421753912207e-01  -3.1653145571274960e-01  -3.0121898353726118e-01  -2.8453767719683659e-01  -2.6654671335956759e-01  -2.4735185351046488e-01  -2.2711093444275429e-01  -2.0603786366751972e-01  -1.8439842536862747e-01  -1.6250172664834037e-01  -1.4068533811517928e-01  -1.1929239034956338e-01  -9.8647524105486911e-02  -7.9031389239704056e-02  -6.0660033798347078e-02  -4.3671682014269811e-02  -2.8123579954017045e-02  -1.3999654918942480e-02  -1.2267387889907757e-03  1.0306925788457473e-02  2.0721554285378144e-02  3.0132876060058336e-02  3.8638818627211975e-02  4.6270610924719291e-02  5.2979013264507338e-02  5.8653747641125950e-02  6.3137513590501460e-02  6.6240596517485845e-02  6.7773244602483781e-02  6.7596032852823548e-02  6.5667972047181930e-02  6.2085388443301047e-02  5.7094556172196442e-02  5.1069149735752183e-02  4.4456023706786141e-02  3.7704486240555987e-02  3.1201342307065241e-02  2.5229529387789509e-02  1.9956477691920375e-02  1.5447077044366340e-02  1.1689824965835847e-02  8.6253095400325632e-03  6.1710555814941869e-03  4.2392332642954139e-03  2.7468575777447510e-03  1.6210221028630063e-03  8.0034882199177422e-04  2.3380179713212109e-04  -1.2165715844702819e-04  -3.0391065516855548e-04  -3.4864197387888906e-04  -2.9234129973789238e-04  -1.7653108876251807e-04  -5.2090822579799832e-05  9.5258521403960414e-06  -2.6273714089126369e-05  1.2986190426980413e-04  6.1471582792014395e-04  1.4365299996298728e-03  2.5743199971766917e-03  3.9766927172563624e-03  5.5657861783014462e-03  7.2471582623663830e-03  8.9223703650087843e-03  1.0501402493122898e-02  1.1912255984567634e-02  1.3106457611736023e-02  1.4060129580913785e-02  1.4771295712405073e-02  1.5254700088745389e-02  1.5535438357698916e-02  1.5642372404561549e-02  1.5601735728414176e-02  1.5431020383314079e-02  1.5133408694038486e-02  1.4692259485812474e-02  1.4066023346915880e-02  1.3185180049283913e-02  1.1951124472796323e-02  1.0236181122385644e-02  7.8895718143684006e-03  4.7406851934095840e-03  5.9119973629563648e-04  -4.7764180301533409e-03  -1.1579543406273657e-02  -2.0040729651886507e-02  -3.0387472355212670e-02  -4.2814092972601928e-02  -5.7441819859767748e-02  -7.4290762702547947e-02  -9.3252234442030124e-02  -1.1407312759476600e-01  -1.3636454717710272e-01  -1.5963387198598170e-01  -1.8333424321254835e-01  -2.06