<?xml version="1.0"?>
<VTKFile type="UnstructuredGrid"  version="0.1"  >
<UnstructuredGrid>
<Piece  NumberOfPoints="16641" NumberOfCells="16384">
<Points>
<DataArray  type="Float64"  NumberOfComponents="3"  format="ascii">0 0 0  0.0078125 0 0  0.015625 0 0  0.0234375 0 0  0.03125 0 0  0.0390625 0 0  0.046875 0 0  0.0546875 0 0  0.0625 0 0  0.0703125 0 0  0.078125 0 0  0.0859375 0 0  0.09375 0 0  0.1015625 0 0  0.109375 0 0  0.1171875 0 0  0.125 0 0  0.1328125 0 0  0.140625 0 0  0.1484375 0 0  0.15625 0 0  0.1640625 0 0  0.171875 0 0  0.1796875 0 0  0.1875 0 0  0.1953125 0 0  0.203125 0 0  0.2109375 0 0  0.21875 0 0  0.2265625 0 0  0.234375 0 0  0.2421875 0 0  0.25 0 0  0.2578125 0 0  0.265625 0 0  0.2734375 0 0  0.28125 0 0  0.2890625 0 0  0.296875 0 0  0.3046875 0 0  0.3125 0 0  0.3203125 0 0  0.328125 0 0  0.3359375 0 0  0.34375 0 0  0.3515625 0 0  0.359375 0 0  0.3671875 0 0  0.375 0 0  0.3828125 0 0  0.390625 0 0  0.3984375 0 0  0.40625 0 0  0.4140625 0 0  0.421875 0 0  0.4296875 0 0  0.4375 0 0  0.4453125 0 0  0.453125 0 0  0.4609375 0 0  0.46875 0 0  0.4765625 0 0  0.484375 0 0  0.4921875 0 0  0.5 0 0  0.5078125 0 0  0.515625 0 0  0.5234375 0 0  0.53125 0 0  0.5390625 0 0  0.546875 0 0  0.5546875 0 0  0.5625 0 0  0.5703125 0 0  0.578125 0 0  0.5859375 0 0  0.59375 0 0  0.6015625 0 0  0.609375 0 0  0.6171875 0 0  0.625 0 0  0.6328125 0 0  0.640625 0 0  0.6484375 0 0  0.65625 0 0  0.6640625 0 0  0.671875 0 0  0.6796875 0 0  0.6875 0 0  0.6953125 0 0  0.703125 0 0  0.7109375 0 0  0.71875 0 0  0.7265625 0 0  0.734375 0 0  0.7421875 0 0  0.75 0 0  0.7578125 0 0  0.765625 0 0  0.7734375 0 0  0.78125 0 0  0.7890625 0 0  0.796875 0 0  0.8046875 0 0  0.8125 0 0  0.8203125 0 0  0.828125 0 0  0.8359375 0 0  0.84375 0 0  0.8515625 0 0  0.859375 0 0  0.8671875 0 0  0.875 0 0  0.8828125 0 0  0.890625 0 0  0.8984375 0 0  0.90625 0 0  0.9140625 0 0  0.921875 0 0  0.9296875 0 0  0.9375 0 0  0.9453125 0 0  0.953125 0 0  0.9609375 0 0  0.96875 0 0  0.9765625 0 0  0.984375 0 0  0.9921875 0 0  1 0 0  0 0.0078125 0  0.0078125 0.0078125 0  0.015625 0.0078125 0  0.0234375 0.0078125 0  0.03125 0.0078125 0  0.0390625 0.0078125 0  0.046875 0.0078125 0  0.0546875 0.0078125 0  0.0625 0.0078125 0  0.0703125 0.0078125 0  0.078125 0.0078125 0  0.0859375 0.0078125 0  0.09375 0.0078125 0  0.1015625 0.0078125 0  0.109375 0.0078125 0  0.1171875 0.0078125 0  0.125 0.0078125 0  0.1328125 0.0078125 0  0.140625 0.0078125 0  0.1484375 0.0078125 0  0.15625 0.0078125 0  0.1640625 0.0078125 0  0.171875 0.0078125 0  0.1796875 0.0078125 0  0.1875 0.0078125 0  0.1953125 0.0078125 0  0.203125 0.0078125 0  0.2109375 0.0078125 0  0.21875 0.0078125 0  0.2265625 0.0078125 0  0.234375 0.0078125 0  0.2421875 0.0078125 0  0.25 0.0078125 0  0.2578125 0.0078125 0  0.265625 0.0078125 0  0.2734375 0.0078125 0  0.28125 0.0078125 0  0.2890625 0.0078125 0  0.296875 0.0078125 0  0.3046875 0.0078125 0  0.3125 0.0078125 0  0.3203125 0.0078125 0  0.328125 0.0078125 0  0.3359375 0.0078125 0  0.34375 0.0078125 0  0.3515625 0.0078125 0  0.359375 0.0078125 0  0.3671875 0.0078125 0  0.375 0.0078125 0  0.3828125 0.0078125 0  0.390625 0.0078125 0  0.3984375 0.0078125 0  0.40625 0.0078125 0  0.4140625 0.0078125 0  0.421875 0.0078125 0  0.4296875 0.0078125 0  0.4375 0.0078125 0  0.4453125 0.0078125 0  0.453125 0.0078125 0  0.4609375 0.0078125 0  0.46875 0.0078125 0  0.4765625 0.0078125 0  0.484375 0.0078125 0  0.4921875 0.0078125 0  0.5 0.0078125 0  0.5078125 0.0078125 0  0.515625 0.0078125 0  0.5234375 0.0078125 0  0.53125 0.0078125 0  0.5390625 0.0078125 0  0.546875 0.0078125 0  0.5546875 0.0078125 0  0.5625 0.0078125 0  0.5703125 0.0078125 0  0.578125 0.0078125 0  0.5859375 0.0078125 0  0.59375 0.0078125 0  0.6015625 0.0078125 0  0.609375 0.0078125 0  0.6171875 0.0078125 0  0.625 0.0078125 0  0.6328125 0.0078125 0  0.640625 0.0078125 0  0.6484375 0.0078125 0  0.65625 0.0078125 0  0.6640625 0.0078125 0  0.671875 0.0078125 0  0.6796875 0.0078125 0  0.6875 0.0078125 0  0.6953125 0.0078125 0  0.703125 0.0078125 0  0.7109375 0.0078125 0  0.71875 0.0078125 0  0.7265625 0.0078125 0  0.734375 0.0078125 0  0.7421875 0.0078125 0  0.75 0.0078125 0  0.7578125 0.0078125 0  0.765625 0.0078125 0  0.7734375 0.0078125 0  0.78125 0.0078125 0  0.7890625 0.0078125 0  0.796875 0.0078125 0  0.8046875 0.0078125 0  0.8125 0.0078125 0  0.8203125 0.0078125 0  0.828125 0.0078125 0  0.8359375 0.0078125 0  0.84375 0.0078125 0  0.8515625 0.0078125 0  0.859375 0.0078125 0  0.8671875 0.0078125 0  0.875 0.0078125 0  0.8828125 0.0078125 0  0.890625 0.0078125 0  0.8984375 0.0078125 0  0.90625 0.0078125 0  0.9140625 0.0078125 0  0.921875 0.0078125 0  0.9296875 0.0078125 0  0.9375 0.0078125 0  0.9453125 0.0078125 0  0.953125 0.0078125 0  0.9609375 0.0078125 0  0.96875 0.0078125 0  0.9765625 0.0078125 0  0.984375 0.0078125 0  0.9921875 0.0078125 0  1 0.0078125 0  0 0.015625 0  0.0078125 0.015625 0  0.015625 0.015625 0  0.0234375 0.015625 0  0.03125 0.015625 0  0.0390625 0.015625 0  0.046875 0.015625 0  0.0546875 0.015625 0  0.0625 0.015625 0  0.0703125 0.015625 0  0.078125 0.015625 0  0.0859375 0.015625 0  0.09375 0.015625 0  0.1015625 0.015625 0  0.109375 0.015625 0  0.1171875 0.015625 0  0.125 0.015625 0  0.1328125 0.015625 0  0.140625 0.015625 0  0.1484375 0.015625 0  0.15625 0.015625 0  0.1640625 0.015625 0  0.171875 0.015625 0  0.1796875 0.015625 0  0.1875 0.015625 0  0.1953125 0.015625 0  0.203125 0.015625 0  0.2109375 0.015625 0  0.21875 0.015625 0  0.2265625 0.015625 0  0.234375 0.015625 0  0.2421875 0.015625 0  0.25 0.015625 0  0.2578125 0.015625 0  0.265625 0.015625 0  0.2734375 0.015625 0  0.28125 0.015625 0  0.2890625 0.015625 0  0.296875 0.015625 0  0.3046875 0.015625 0  0.3125 0.015625 0  0.3203125 0.015625 0  0.328125 0.015625 0  0.3359375 0.015625 0  0.34375 0.015625 0  0.3515625 0.015625 0  0.359375 0.015625 0  0.3671875 0.015625 0  0.375 0.015625 0  0.3828125 0.015625 0  0.390625 0.015625 0  0.3984375 0.015625 0  0.40625 0.015625 0  0.4140625 0.015625 0  0.421875 0.015625 0  0.4296875 0.015625 0  0.4375 0.015625 0  0.4453125 0.015625 0  0.453125 0.015625 0  0.4609375 0.015625 0  0.46875 0.015625 0  0.4765625 0.015625 0  0.484375 0.015625 0  0.4921875 0.015625 0  0.5 0.015625 0  0.5078125 0.015625 0  0.515625 0.015625 0  0.5234375 0.015625 0  0.53125 0.015625 0  0.5390625 0.015625 0  0.546875 0.015625 0  0.5546875 0.015625 0  0.5625 0.015625 0  0.5703125 0.015625 0  0.578125 0.015625 0  0.5859375 0.015625 0  0.59375 0.015625 0  0.6015625 0.015625 0  0.609375 0.015625 0  0.6171875 0.015625 0  0.625 0.015625 0  0.6328125 0.015625 0  0.640625 0.015625 0  0.6484375 0.015625 0  0.65625 0.015625 0  0.6640625 0.015625 0  0.671875 0.015625 0  0.6796875 0.015625 0  0.6875 0.015625 0  0.6953125 0.015625 0  0.703125 0.015625 0  0.7109375 0.015625 0  0.71875 0.015625 0  0.7265625 0.015625 0  0.734375 0.015625 0  0.7421875 0.015625 0  0.75 0.015625 0  0.7578125 0.015625 0  0.765625 0.015625 0  0.7734375 0.015625 0  0.78125 0.015625 0  0.7890625 0.015625 0  0.796875 0.015625 0  0.8046875 0.015625 0  0.8125 0.015625 0  0.8203125 0.015625 0  0.828125 0.015625 0  0.8359375 0.015625 0  0.84375 0.015625 0  0.8515625 0.015625 0  0.859375 0.015625 0  0.8671875 0.015625 0  0.875 0.015625 0  0.8828125 0.015625 0  0.890625 0.015625 0  0.8984375 0.015625 0  0.90625 0.015625 0  0.9140625 0.015625 0  0.921875 0.015625 0  0.9296875 0.015625 0  0.9375 0.015625 0  0.9453125 0.015625 0  0.953125 0.015625 0  0.9609375 0.015625 0  0.96875 0.015625 0  0.9765625 0.015625 0  0.984375 0.015625 0  0.9921875 0.015625 0  1 0.015625 0  0 0.0234375 0  0.0078125 0.0234375 0  0.015625 0.0234375 0  0.0234375 0.0234375 0  0.03125 0.0234375 0  0.0390625 0.0234375 0  0.046875 0.0234375 0  0.0546875 0.0234375 0  0.0625 0.0234375 0  0.0703125 0.0234375 0  0.078125 0.0234375 0  0.0859375 0.0234375 0  0.09375 0.0234375 0  0.1015625 0.0234375 0  0.109375 0.0234375 0  0.1171875 0.0234375 0  0.125 0.0234375 0  0.1328125 0.0234375 0  0.140625 0.0234375 0  0.1484375 0.0234375 0  0.15625 0.0234375 0  0.1640625 0.0234375 0  0.171875 0.0234375 0  0.1796875 0.0234375 0  0.1875 0.0234375 0  0.1953125 0.0234375 0  0.203125 0.0234375 0  0.2109375 0.0234375 0  0.21875 0.0234375 0  0.2265625 0.0234375 0  0.234375 0.0234375 0  0.2421875 0.0234375 0  0.25 0.0234375 0  0.2578125 0.0234375 0  0.265625 0.0234375 0  0.2734375 0.0234375 0  0.28125 0.0234375 0  0.2890625 0.0234375 0  0.296875 0.0234375 0  0.3046875 0.0234375 0  0.3125 0.0234375 0  0.3203125 0.0234375 0  0.328125 0.0234375 0  0.3359375 0.0234375 0  0.34375 0.0234375 0  0.3515625 0.0234375 0  0.359375 0.0234375 0  0.3671875 0.0234375 0  0.375 0.0234375 0  0.3828125 0.0234375 0  0.390625 0.0234375 0  0.3984375 0.0234375 0  0.40625 0.0234375 0  0.4140625 0.0234375 0  0.421875 0.0234375 0  0.4296875 0.0234375 0  0.4375 0.0234375 0  0.4453125 0.0234375 0  0.453125 0.0234375 0  0.4609375 0.0234375 0  0.46875 0.0234375 0  0.4765625 0.0234375 0  0.484375 0.0234375 0  0.4921875 0.0234375 0  0.5 0.0234375 0  0.5078125 0.0234375 0  0.515625 0.0234375 0  0.5234375 0.0234375 0  0.53125 0.0234375 0  0.5390625 0.0234375 0  0.546875 0.0234375 0  0.5546875 0.0234375 0  0.5625 0.0234375 0  0.5703125 0.0234375 0  0.578125 0.0234375 0  0.5859375 0.0234375 0  0.59375 0.0234375 0  0.6015625 0.0234375 0  0.609375 0.0234375 0  0.6171875 0.0234375 0  0.625 0.0234375 0  0.6328125 0.0234375 0  0.640625 0.0234375 0  0.6484375 0.0234375 0  0.65625 0.0234375 0  0.6640625 0.0234375 0  0.671875 0.0234375 0  0.6796875 0.0234375 0  0.6875 0.0234375 0  0.6953125 0.0234375 0  0.703125 0.0234375 0  0.7109375 0.0234375 0  0.71875 0.0234375 0  0.7265625 0.0234375 0  0.734375 0.0234375 0  0.7421875 0.0234375 0  0.75 0.0234375 0  0.7578125 0.0234375 0  0.765625 0.0234375 0  0.7734375 0.0234375 0  0.78125 0.0234375 0  0.7890625 0.0234375 0  0.796875 0.0234375 0  0.8046875 0.0234375 0  0.8125 0.0234375 0  0.8203125 0.0234375 0  0.828125 0.0234375 0  0.8359375 0.0234375 0  0.84375 0.0234375 0  0.8515625 0.0234375 0  0.859375 0.0234375 0  0.8671
[...]
<PointData  Scalars="v_sol"> 
<DataArray  type="Float64"  Name="v_sol"  format="ascii">-1.2747028547145587e-06  -1.8879297094754134e-06  3.0516483111836788e-06  1.1283205970818118e-05  2.0486415539933677e-05  2.9238055689197510e-05  3.6579967757577440e-05  4.1846408747707155e-05  4.4657830108367681e-05  4.4940033181775639e-05  4.2914198436350606e-05  3.9045696882007846e-05  3.3960347219279526e-05  2.8347011511186361e-05  2.2866574724977571e-05  1.8079479984212980e-05  1.4401266634861502e-05  1.2084250066468126e-05  1.1217755486353616e-05  1.1740795524124934e-05  1.3460855417384987e-05  1.6074388079110215e-05  1.9192674531563694e-05  2.2377861706304720e-05  2.5188210118137326e-05  2.7229617426485447e-05  2.8212392713489319e-05  2.7993650611548876e-05  2.6506690597261800e-05  2.3732666045710978e-05  1.9734877042529196e-05  1.4536883164062176e-05  7.8197622543959902e-06  -7.8048144690943907e-07  -1.1922952833452628e-05  -2.6235000575861741e-05  -4.4174497834116746e-05  -6.5096707933704701e-05  -8.9937289942723628e-05  -1.1864489800244100e-04  -1.5433704049035119e-04  -1.9569071920046651e-04  -2.4143856224405840e-04  -2.9182333376170483e-04  -3.4517177962508380e-04  -4.0004518404379596e-04  -4.5729871606298221e-04  -5.1418919591317530e-04  -5.6893995818358171e-04  -6.1955482331904079e-04  -6.6408132372790501e-04  -7.0063390653947878e-04  -7.2753997089394502e-04  -7.4342501749718082e-04  -7.4728570176735623e-04  -7.3851028579178504e-04  -7.1686355507654688e-04  -6.8243920446986082e-04  -6.3559744894857234e-04  -5.7690020239230396e-04  -5.0705626982584003e-04  -4.2688168195665672e-04  -3.3726488202378690e-04  -2.3916396891438259e-04  -1.3419344736033254e-04  -2.2937478569670313e-05  9.8964706133717101e-05  2.2105792032256179e-04  3.4491739421949432e-04  4.6854938343599353e-04  5.9006665175345208e-04  7.0715380786254842e-04  8.1751414197915324e-04  9.1866696249245765e-04  1.0081603566589388e-03  1.0835678513808184e-03  1.1426297164809709e-03  1.1833188512115169e-03  1.2040808252891987e-03  1.2031796531046992e-03  1.1872022235362059e-03  1.1309081984227441e-03  1.0668481809298568e-03  9.8462704404702803e-04  8.8156186239808599e-04  7.6504449950335425e-04  6.3806155165924356e-04  5.0478407356353101e-04  3.6976158678988917e-04  2.3630360956954267e-04  1.0960905959427298e-04  -1.4524478402876145e-05  -1.2285305964744077e-04  -2.1154278355716620e-04  -2.9557294355196846e-04  -3.6715756049121595e-04  -4.2507408371357465e-04  -4.7039650853255340e-04  -5.0198481220258939e-04  -5.1902574946646415e-04  -5.2095944657916588e-04  -5.0791883902110856e-04  -4.8102294264400859e-04  -4.4254831116936265e-04  -3.9570915411840950e-04  -3.4419555108392176e-04  -2.9166887328446099e-04  -2.4122120021597776e-04  -1.9497306020941561e-04  -1.5433571076043105e-04  -1.1982980606478605e-04  -9.1466866991819342e-05  -6.8693176775119094e-05  -5.0726251453119606e-05  -3.6764905175037134e-05  -2.6010702835134740e-05  -1.7693188409198092e-05  -1.1142199505192361e-05  -5.8027288531271378e-06  -1.2555855979414304e-06  2.7717418296702132e-06  6.3987294751818746e-06  9.5841641075620241e-06  1.2121163281575570e-05  1.3618618754230528e-05  1.3503879302811309e-05  1.0999449290225889e-05  6.0687257360394093e-06  4.8638603510526784e-07  5.5089379348277880e-06  1.7508538105147198e-05  -9.8722845823572943e-06  -5.4717016410149821e-05  -1.0384555490308947e-04  -1.5026830533195021e-04  -1.8912620997107727e-04  -2.1693136464325408e-04  -2.3165907462011477e-04  -2.3291679922170821e-04  -2.2191568642083927e-04  -2.0119179072789831e-04  -1.7413809348196390e-04  -1.4446192285145842e-04  -1.1568400430704982e-04  -9.0756388254205149e-05  -7.1837569083118042e-05  -6.0211769413840715e-05  -5.6309858444985648e-05  -5.9787814198997281e-05  -6.9626802739388349e-05  -8.4238397136122994e-05  -1.0159262986451310e-04  -1.1939767372739960e-04  -1.3534290600767312e-04  -1.4738381118416005e-04  -1.5403990361915242e-04  -1.5459011003356163e-04  -1.4887692823093530e-04  -1.3710954644679345e-04  -1.1969650875332498e-04  -9.6483718796172680e-05  -6.6153317938103811e-05  -2.7005203738632657e-05  2.3762115580218279e-05  8.9507992165709408e-05  1.7251628195651196e-04  2.7234044663498386e-04  3.9164961119445273e-04  5.3317294360553870e-04  7.0453937994509840e-04  9.0329709709489534e-04  1.1256574017997733e-03  1.3704113278674174e-03  1.6338512004944140e-03  1.9127566355544028e-03  2.2016691053195216e-03  2.4925153156818646e-03  2.7764458043894125e-03  3.0441483696274597e-03  3.2861406402184688e-03  3.4932128029206027e-03  3.6569822959708004e-03  3.7703284329654177e-03  3.8276905789391335e-03  3.8251633358645353e-03  3.7604248423896065e-03  3.6325370574430138e-03  3.4416851084409198e-03  3.1889101010812103e-03  2.8758856463073682e-03  2.5047756483857295e-03  2.0781956926967573e-03  1.5991523856664681e-03  1.0704583807227203e-03  4.9519671893769729e-04  -1.2359492521526352e-04  -7.7759224612595308e-04  -1.4602841014606147e-03  -2.1610853356605598e-03  -2.8692918495690349e-03  -3.5709807747165089e-03  -4.2503906575397056e-03  -4.8893663546055090e-03  -5.4682258654618820e-03  -5.9663578764519234e-03  -6.3634683726573214e-03  -6.6409989733725132e-03  -6.7838197913202150e-03  -6.7822844777043739e-03  -6.6242861681019109e-03  -6.3164377311331578e-03  -5.8754952808667662e-03  -5.3166227187991947e-03  -4.6595869766108636e-03  -3.9314648573746894e-03  -3.1626254038592499e-03  -2.3818826237169493e-03  -1.6157976519489278e-03  -8.8581826898837587e-04  -2.0914362140816455e-04  4.0575738865528002e-04  9.4735482029382806e-04  1.4045817197092135e-03  1.7990125398187524e-03  2.1294287971971647e-03  2.3896022465427721e-03  2.5813907578009455e-03  2.7029089381047037e-03  2.7512159789106387e-03  2.7250117538406794e-03  2.6264410400259697e-03  2.4624676977619748e-03  2.2453901295740562e-03  1.9916981846124339e-03  1.7198045788133043e-03  1.4473939621599899e-03  1.1891146002385086e-03  9.5523244958394178e-04  7.5155811723062954e-04  5.8000981493878630e-04  4.3977712546555827e-04  3.2786822665797655e-04  2.4019656671944172e-04  1.7252718746491974e-04  1.2071429663756294e-04  8.0848782686551363e-05  4.9521416004620043e-05  2.3921781411608454e-05  1.9314511072224705e-06  -1.7813678542664206e-05  -3.5887590747354887e-05  -5.2039169256765485e-05  -6.5151013984447213e-05  -7.3149946522748892e-05  -7.2819844084008644e-05  -5.9699140781398555e-05  -2.9466501957516241e-05  4.3454014326522823e-06  1.6571132215483666e-05  1.5566168941496368e-05  -9.7996618483158176e-05  -2.7003836388749360e-04  -4.5902553711756121e-04  -6.3790216748708690e-04  -7.8727002586805755e-04  -8.9356780520569721e-04  -9.4922151193315395e-04  -9.5294024679251469e-04  -9.0939186311864313e-04  -8.2809839999801560e-04  -7.2174642728115262e-04  -6.0425816217470388e-04  -4.8898226034583062e-04  -3.8728353096418385e-04  -3.0763006195016313e-04  -2.5517061947061655e-04  -2.3170731164038960e-04  -2.3590286625958050e-04  -2.6361062681784178e-04  -3.0830075127527513e-04  -3.6160711587132074e-04  -4.1405320057858911e-04  -4.5603221922705560e-04  -4.7893401402584118e-04  -4.7603855190892982e-04  -4.4307846359417224e-04  -3.7835012646758793e-04  -2.8125614068961612e-04  -1.5060741871642650e-04  1.7318351521777052e-05  2.2955749343921817e-04  4.9454189851384832e-04  8.1963299075594001e-04  1.2165128575116443e-03  1.6995332360590443e-03  2.2801826903038670e-03  2.9575386814105903e-03  3.7331631798766087e-03  4.6082385636581564e-03  5.5777502721920946e-03  6.6247532292775324e-03  7.7259642475774170e-03  8.8530028981011477e-03  9.9735536058554071e-03  1.1053312698203841e-02  1.2052391093307750e-02  1.2932876043433465e-02  1.3661010621890343e-02  1.4208759901358309e-02  1.4555099533148430e-02  1.4686454476048902e-02  1.4596490797477104e-02  1.4285312660567007e-02  1.3758303737418608e-02  1.3024791225758810e-02  1.2096730976958143e-02  1.0987544717386007e-02  9.7112066097520926e-03  8.2816227716205303e-03  6.7123150987544820e-03  5.0163785078782891e-03  3.2066738562930232e-03  1.2963578027416875e-03  -7.0234863136090008e-04  -2.7737103759960476e-03  -4.8951823401458061e-03  -7.0485005341195612e-03  -9.2097062553257673e-03  -1.1350018386717895e-02  -1.3435998872500469e-02  -1.5428958325913263e-02  -1.7285773507425304e-02  -1.8959559373337580e-02  -2.0401537232005284e-02  -2.1563241864781209e-02  -2.2399571805644617e-02  -2.2872154791867317e-02  -2.2952097743220087e-02  -2.2625863014500092e-02  -2.1875902791099681e-02  -2.0746990561317877e-02  -1.9269361609078335e-02  -1.7482100073414060e-02  -1.5449982589634806e-02  -1.3241049305312506e-02  -1.0927574303235562e-02  -8.5781788783880694e-03  -6.2536900449435169e-03  -4.0053714820215136e-03  -1.8667710863205687e-03  1.2914030963743879e-04  1.9620121868050232e-03  3.6167772322239994e-03  5.0945636967491461e-03  6.3965131719762583e-03  7.5065368737561736e-03  8.4043393780521974e-03  9.0645463588444330e-03  9.4600478272812791e-03  9.5698334597938087e-03  9.3884403091475856e-03  8.9327805608583680e-03  8.2444537449824305e-03  7.3856527447804070e-03  6.4296102232176454e-03  5.4487125083810522e-03  4.5041528459581620e-03  3.6403144198923513e-03  2.8831130142125704e-03  2.2422070721162487e-03  1.7150804851421718e-03  1.2915249482461173e-03  9.5701288273147063e-04  6.9529805161956670e-04  4.9053398026743442e-04  3.2828773770941913e-04  1.9636293810446889e-04  8.5342942470381357e-05  -1.1109884474763939e-05  -9.6097634116840564e-05  -1.6943564658662970e-04  -2.2760594836951749e-04  -2.6367969073958143e-04  -2.6732169422249389e-04  -2.2566140609437185e-04  -1.3006058261008820e-04  4.9941982855372002e-07  2.3414596763090224e-05  -5.2217335450870306e-05  -3.0168534642539612e-04  -6.4919876457307805e-04  -1.0254983465000304e-03  -1.3792652628633981e-03  -1.6720851583223091e-03  -1.8773775624743247e-03  -1.9808881308362707e-03  -1.9809005882459193e-03  -1.8872342957171571e-03  -1.7188936606863544e-03  -1.5007559107017615e-03  -1.2599392296747225e-03  -1.0224254254683649e-03  -8.1036890457324910e-04  -6.4030905998193742e-04  -5.2225876024033092e-04  -4.5951829926179445e-04  -4.4893416927000481e-04  -4.8148939592476843e-04  -5.4311106504259055e-04  -6.1580729926192048e-04  -6.7920496142646501e-04  -7.1247105886969048e-04  -6.9654004577837962e-04  -6.1622032033771805e-04  -4.6095236096065908e-04  -2.2365098463968835e-04  1.0184705163471385e-04  5.2302614449769723e-04  1.0480464299761675e-03  1.6924338366663297e-03  2.4811612758446379e-03  3.4399013949886668e-03  4.5835719318064140e-03  5.9273591243830526e-03  7.4828725309123616e-03  9.2472917278712784e-03  1.1200754515905792e-02  1.3309472567934060e-02  1.5532647819630095e-02  1.7810771116190869e-02  2.0068092228127402e-02  2.2224747743836488e-02  2.4199484045621642e-02  2.5915205555373182e-02  2.7307113604692079e-02  2.8324697020474299e-02  2.8935141523325516e-02  2.9123124806157044e-02  2.8889363830494078e-02  2.8247816844636762e-02  2.7222364678829328e-02  2.5843379407992053e-02  2.4144600717126409e-02  2.2160533899737045e-02  1.9924483312402142e-02  1.7467228058352942e-02  1.4816291434444481e-02  1.1995721681376033e-02  9.0262942200753944e-03  5.9260617572343818e-03  2.7112306842289021e-03  -6.0256001085744280e-04  -3.9985257063173216e-03  -7.4561088712076298e-03  -1.0960487531379983e-02  -1.4485933685328660e-02  -1.8003010790294843e-02  -2.1474779176212423e-02  -2.4856830857244182e-02  -2.8096458770269582e-02  -3.1133081918406087e-02  -3.3899281588538596e-02  -3.6322879214139216e-02  -3.8330140855413794e-02  -3.9849939865725804e-02  -4.0818698497234795e-02  -4.1185834699668196e-02  -4.0917703032693334e-02  -4.0015662307277836e-02  -3.8481379998236843e-02  -3.6366733661214873e-02  -3.3739620415505517e-02  -3.0683201011913991e-02  -2.7295278529444893e-02  -2.3680079946517954e-02  -1.9938185814972503e-02  -1.6160420634984473e-02  -1.2421560531855984e-02  -8.7842576191245799e-03  -5.2800976414654728e-03  -1.9280395924308100e-03  1.2442498924617404e-03  4.2229416179776838e-03  6.9944976482838039e-03  9.5422111694150585e-03  1.1828024830409177e-02  1.3791704321258813e-02  1.5356788664820337e-02  1.6442416673906876e-02  1.6979928869421363e-02  1.6934308238219949e-02  1.6321047509860014e-02  1.5212193226251586e-02  1.3728023558577614e-02  1.2016054873056455e-02  1.0224941943884680e-02  8.4815876076553397e-03  6.8777752356207113e-03  5.4670749524078008e-03  4.2701438985479788e-03  3.2829736104372041e-03  2.4858244735816251e-03  1.8507704105619825e-03  1.3469420143896892e-03  9.4462389921704979e-04  6.1782819340024673e-04  3.4581719203281174e-04  1.1402719170984257e-04  -8.5566521395539753e-05  -2.5440155035043717e-04  -3.8745534034780873e-04  -4.7348260372349850e-04  -4.9562564330010706e-04  -4.3362084122748688e-04  -2.7021342897725866e-04  -8.4462597031175520e-06  2.7488456566298425e-05  -1.9351955825969058e-04  -6.3101091149277784e-04  -1.1958184904648089e-03  -1.7931098011627169e-03  -2.3464354151581613e-03  -2.7967220551884300e-03  -3.1034936539988344e-03  -3.2462938434982751e-03  -3.2246930922240763e-03  -3.0561416675421258e-03  -2.7718493892528169e-03  -2.4114151718071485e-03  -2.0171405890968479e-03  -1.6289578584605280e-03  -1.2804609708617581e-03  -9.9628669507592442e-04  -7.9072561779133376e-04  -6.6736319877919853e-04  -6.1940103728677360e-04  -6.3041405965528813e-04  -6.7558409238646297e-04  -7.2353653029827067e-04  -7.3893182859507175e-04  -6.8570236127920084e-04  -5.3070622769051199e-04  -2.4603936951965590e-04  1.9049919262763274e-04  7.9482094400594103e-04  1.5789985792041840e-03  2.5622211258639585e-03  3.7743741631812641e-03  5.2441625200513866e-03  7.0027686453488494e-03  9.0835594067674736e-03  1.1504765866443873e-02  1.4260811124828639e-02  1.7327036085213000e-02  2.0660243302038965e-02  2.4182494339482621e-02  2.7792147588370342e-02  3.1365305082167033e-02  3.4768454881365575e-02  3.7869211865505903e-02  4.0546615836684438e-02  4.2702549410350774e-02  4.4267903507231157e-02  4.5204289027014767e-02  4.5503051482532947e-02  4.5180803286207522e-02  4.4273708104151197e-02  4.2831041983387219e-02  4.0909240879018018e-02  3.8566809118559545e-02  3.5860434873657497e-02  3.2842278477550009e-02  2.9558345287423300e-02  2.6047736592911361e-02  2.2342588208596682e-02  1.8468507830620623e-02  1.4445367782376171e-02  1.0288343877792065e-02  6.0091363855438243e-03  1.6173561447862116e-03  -2.8781779846709390e-03  -7.4673592863633226e-03  -1.2140300613368847e-02  -1.6877505817516007e-02  -2.1656152232591555e-02  -2.6444598900176364e-02  -3.1201789613624572e-02  -3.5875314787685089e-02  -4.0400729352542172e-02  -4.4701181803556596e-02  -4.8688299429236366e-02  -5.2264298248885718e-02  -5.5325673118846855e-02  -5.7768548787501095e-02  -5.9495570519775838e-02  -6.0423940984642356e-02  -6.0494760661517898e-02  -5.9674932545774689e-02  -5.7977429735548869e-02  -5.5444998244242302e-02  -5.2161635492796128e-02  -4.8242406981709215e-02  -4.3823708850832303e-02  -3.9052240091851251e-02  -3.4072320243148421e-02  -2.9012711691378767e-02  -2.3980463674710167e-02  -1.9051772580944822e-02  -1.4278789230891041e-02  -9.6822196156634080e-03  -5.2426177249652864e-03  -9.5702376969510592e-04  3.1738259218905386e-03  7.1427852392499068e-03  1.0917964261529205e-02  1.4432839802973314e-02  1.7580605547240818e-02  2.0218467149444124e-02  2.2191141033157991e-02  2.3361052456179830e-02  2.3645038980274351e-02  2.3044664750373107e-02  2.1657194825946462e-02  1.9662065887995323e-02  1.7285924247725980e-02  1.4759125572405862e-02  1.2278417458188398e-02  9.9857180108887250e-03  7.9635854374274992e-03  6.2433153944959361e-03  4.8188166990780455e-03  3.6607108994025253e-03  2.7277896737968699e-03  1.9757918306339212e-03  1.3633954943470892e-03  8.5621346412937272e-04  4.2888294312072247e-04  6.6027196480567598e-05  -2.3760934212221205e-04  -4.7749523956031742e-04  -6.3992861464480164e-04  -7.0306989975436689e-04  -6.3889517131165529e-04  -4.1588403655736466e-04  -1.7957616278883066e-05  3.0294731329483793e-05  -4.0619391009354041e-04  -1.0878653817376674e-03  -1.9124063386130141e-03  -2.7601049513034481e-03  -3.5286303050079343e-03  -4.1376335522280766e-03  -4.5332790002388518e-03  -4.6909633929732540e-03  -4.6149058845017998e-03  -4.3342288485393827e-03  -3.8962077330396581e-03  -3.3581847035607584e-03  -2.7794703460875597e-03  -2.2144465196308177e-03  -1.7074578492087269e-03  -1.2895558192704160e-03  -9.7692381824987366e-04  -7.7042817483311498e-04  -6.5594802215179153e-04  -6.0554236402352490e-04  -5.7903301987154805e-04  -5.2658499984343794e-04  -3.9282447274068184e-04  -1.2172050303928090e-04  3.3956406200235468e-04  1.0345618384816813e-03  1.9962619569893090e-03  3.2567761443263042e-03  4.8490651008307609e-03  6.8045680453406119e-03  9.1646043733215731e-03  1.1972228429832844e-02  1.5253730213537332e-02  1.9013682545288294e-02  2.3232104956242047e-02  2.7844451120223063e-02  3.2743107531387497e-02  3.7779382291922875e-02  4.2777037622551535e-02  4.7542337785058647e-02  5.1886408767881580e-02  5.5642272580067965e-02  5.8679261236039289e-02  6.0911627515578937e-02  6.2299908787822773e-02  6.2846587386379396e-02  6.2588146063623507e-02  6.1585134073050829e-02  5.9912538859226490e-02  5.7651327585070002e-02  5.4881890882804547e-02  5.1679441799572672e-02  4.8111212998636181e-02  4.4235076337551200e-02  4.0099208795461729e-02  3.5742447596860481e-02  3.1195067163678977e-02  2.6479784622046074e-02  2.1612879010641579e-02  1.6605361355347660e-02  1.1464171388929785e-02  6.1933887117411185e-03  7.9541584175087641e-04  -4.7278300131225574e-03  -1.0372132984576631e-02  -1.6127711096775903e-02  -2.1982872796399610e-02  -2.7917188397762440e-02  -3.3901697370050048e-02  -3.9895459593555858e-02  -4.5844073510524844e-02  -5.1677420383745468e-02  -5.7308739919823645e-02  -6.2634281063108713e-02  -6.7534655619641379e-02  -7.1877921555967381e-02  -7.5524982656524672e-02  -7.8337345735274524e-02  -8.0187155257649842e-02  -8.0968411786006098e-02  -8.0611315988832269e-02  -7.9087651396142780e-02  -7.6425710967379573e-02  -7.2707507247397010e-02  -6.8067518865372809e-02  -6.2682058212256975e-02  -5.6753488246125409e-02  -5.0490671186227333e-02  -4.4089506559630842e-02  -3.7715443294341601e-02  -3.1492899597072653e-02  -2.5497411682742204e-02  -1.9758281974483868e-02  -1.4271181065505460e-02  -8.9845258469072788e-03  -3.8409688969032645e-03  1.1968187807314577e-03  6.1449592837528686e-03  1.0972331231482642e-02  1.5586854366561162e-02  1.9834764782322954e-02  2.3504466404610201e-02  2.6360684498030081e-02  2.8192006914765321e-02  2.8863868272576681e-02  2.8362409818307368e-02  2.6808893181043618e-02  2.4438575701010871e-02  2.1550556588812053e-02  1.8447505722086456e-02  1.5385711796125920e-02  1.2547785026316762e-02  1.0038561772564975e-02  7.8965430024969824e-03  6.1125634445796584e-03  4.6486957549338225e-03  3.4537267855987313e-03  2.4744820448817963e-03  1.6635285131146485e-03  9.8386681456085856e-04  4.1113289203572988e-04  -6.5784022299412770e-05  -4.4505386217846138e-04  -7.1266681781267135e-04  -8.4334373984747851e-04  -8.0132295259244279e-04  -5.4021238535251594e-04  -2.7039354887916874e-05  3.2876080701862864e-05  -6.8821634569367796e-04  -1.6747706363385174e-03  -2.8058031592828893e-03  -3.9336066389001421e-03  -4.9278798554803190e-03  -5.6864401540322879e-03  -6.1436745424297418e-03  -6.2747824689992088e-03  -6.0941674006719940e-03  -5.6486833604098710e-03  -5.0071117981343475e-03  -4.2484112210881943e-03  -3.4506967507922652e-03  -2.6825339467222626e-03  -1.9968980893988759e-03  -1.4278300656284076e-03  -9.8880895685945916e-04  -6.7265488015831468e-04  -4.5218650670219050e-04  -2.8105050235926928e-04  -9.6723907251678435e-05  1.7547858605305940e-04  6.1784036331694308e-04  1.3113316645545936e-03  2.3277039548401223e-03  3.7321404775609189e-03  5.5796956491428211e-03  7.9145206779761244e-03  1.0784315119434706e-02  1.4235708391282756e-02  1.8302489466679336e-02  2.3004500158551103e-02  2.8324596398930094e-02  3.4189469512938123e-02  4.0465488416901021e-02  4.6964212274103009e-02  5.3451520651333399e-02  5.96724587192947