<?xml version="1.0"?>
<VTKFile type="UnstructuredGrid"  version="0.1"  >
<UnstructuredGrid>
<Piece  NumberOfPoints="1089" NumberOfCells="1024">
<Points>
<DataArray  type="Float64"  NumberOfComponents="3"  format="ascii">0 0 0  0.03125 0 0  0.0625 0 0  0.09375 0 0  0.125 0 0  0.15625 0 0  0.1875 0 0  0.21875 0 0  0.25 0 0  0.28125 0 0  0.3125 0 0  0.34375 0 0  0.375 0 0  0.40625 0 0  0.4375 0 0  0.46875 0 0  0.5 0 0  0.53125 0 0  0.5625 0 0  0.59375 0 0  0.625 0 0  0.65625 0 0  0.6875 0 0  0.71875 0 0  0.75 0 0  0.78125 0 0  0.8125 0 0  0.84375 0 0  0.875 0 0  0.90625 0 0  0.9375 0 0  0.96875 0 0  1 0 0  0 0.03125 0  0.03125 0.03125 0  0.0625 0.03125 0  0.09375 0.03125 0  0.125 0.03125 0  0.15625 0.03125 0  0.1875 0.03125 0  0.21875 0.03125 0  0.25 0.03125 0  0.28125 0.03125 0  0.3125 0.03125 0  0.34375 0.03125 0  0.375 0.03125 0  0.40625 0.03125 0  0.4375 0.03125 0  0.46875 0.03125 0  0.5 0.03125 0  0.53125 0.03125 0  0.5625 0.03125 0  0.59375 0.03125 0  0.625 0.03125 0  0.65625 0.03125 0  0.6875 0.03125 0  0.71875 0.03125 0  0.75 0.03125 0  0.78125 0.03125 0  0.8125 0.03125 0  0.84375 0.03125 0  0.875 0.03125 0  0.90625 0.03125 0  0.9375 0.03125 0  0.96875 0.03125 0  1 0.03125 0  0 0.0625 0  0.03125 0.0625 0  0.0625 0.0625 0  0.09375 0.0625 0  0.125 0.0625 0  0.15625 0.0625 0  0.1875 0.0625 0  0.21875 0.0625 0  0.25 0.0625 0  0.28125 0.0625 0  0.3125 0.0625 0  0.34375 0.0625 0  0.375 0.0625 0  0.40625 0.0625 0  0.4375 0.0625 0  0.46875 0.0625 0  0.5 0.0625 0  0.53125 0.0625 0  0.5625 0.0625 0  0.59375 0.0625 0  0.625 0.0625 0  0.65625 0.0625 0  0.6875 0.0625 0  0.71875 0.0625 0  0.75 0.0625 0  0.78125 0.0625 0  0.8125 0.0625 0  0.84375 0.0625 0  0.875 0.0625 0  0.90625 0.0625 0  0.9375 0.0625 0  0.96875 0.0625 0  1 0.0625 0  0 0.09375 0  0.03125 0.09375 0  0.0625 0.09375 0  0.09375 0.09375 0  0.125 0.09375 0  0.15625 0.09375 0  0.1875 0.09375 0  0.21875 0.09375 0  0.25 0.09375 0  0.28125 0.09375 0  0.3125 0.09375 0  0.34375 0.09375 0  0.375 0.09375 0  0.40625 0.09375 0  0.4375 0.09375 0  0.46875 0.09375 0  0.5 0.09375 0  0.53125 0.09375 0  0.5625 0.09375 0  0.59375 0.09375 0  0.625 0.09375 0  0.65625 0.09375 0  0.6875 0.09375 0  0.71875 0.09375 0  0.75 0.09375 0  0.78125 0.09375 0  0.8125 0.09375 0  0.84375 0.09375 0  0.875 0.09375 0  0.90625 0.09375 0  0.9375 0.09375 0  0.96875 0.09375 0  1 0.09375 0  0 0.125 0  0.03125 0.125 0  0.0625 0.125 0  0.09375 0.125 0  0.125 0.125 0  0.15625 0.125 0  0.1875 0.125 0  0.21875 0.125 0  0.25 0.125 0  0.28125 0.125 0  0.3125 0.125 0  0.34375 0.125 0  0.375 0.125 0  0.40625 0.125 0  0.4375 0.125 0  0.46875 0.125 0  0.5 0.125 0  0.53125 0.125 0  0.5625 0.125 0  0.59375 0.125 0  0.625 0.125 0  0.65625 0.125 0  0.6875 0.125 0  0.71875 0.125 0  0.75 0.125 0  0.78125 0.125 0  0.8125 0.125 0  0.84375 0.125 0  0.875 0.125 0  0.90625 0.125 0  0.9375 0.125 0  0.96875 0.125 0  1 0.125 0  0 0.15625 0  0.03125 0.15625 0  0.0625 0.15625 0  0.09375 0.15625 0  0.125 0.15625 0  0.15625 0.15625 0  0.1875 0.15625 0  0.21875 0.15625 0  0.25 0.15625 0  0.28125 0.15625 0  0.3125 0.15625 0  0.34375 0.15625 0  0.375 0.15625 0  0.40625 0.15625 0  0.4375 0.15625 0  0.46875 0.15625 0  0.5 0.15625 0  0.53125 0.15625 0  0.5625 0.15625 0  0.59375 0.15625 0  0.625 0.15625 0  0.65625 0.15625 0  0.6875 0.15625 0  0.71875 0.15625 0  0.75 0.15625 0  0.78125 0.15625 0  0.8125 0.15625 0  0.84375 0.15625 0  0.875 0.15625 0  0.90625 0.15625 0  0.9375 0.15625 0  0.96875 0.15625 0  1 0.15625 0  0 0.1875 0  0.03125 0.1875 0  0.0625 0.1875 0  0.09375 0.1875 0  0.125 0.1875 0  0.15625 0.1875 0  0.1875 0.1875 0  0.21875 0.1875 0  0.25 0.1875 0  0.28125 0.1875 0  0.3125 0.1875 0  0.34375 0.1875 0  0.375 0.1875 0  0.40625 0.1875 0  0.4375 0.1875 0  0.46875 0.1875 0  0.5 0.1875 0  0.53125 0.1875 0  0.5625 0.1875 0  0.59375 0.1875 0  0.625 0.1875 0  0.65625 0.1875 0  0.6875 0.1875 0  0.71875 0.1875 0  0.75 0.1875 0  0.78125 0.1875 0  0.8125 0.1875 0  0.84375 0.1875 0  0.875 0.1875 0  0.90625 0.1875 0  0.9375 0.1875 0  0.96875 0.1875 0  1 0.1875 0  0 0.21875 0  0.03125 0.21875 0  0.0625 0.21875 0  0.09375 0.21875 0  0.125 0.21875 0  0.15625 0.21875 0  0.1875 0.21875 0  0.21875 0.21875 0  0.25 0.21875 0  0.28125 0.21875 0  0.3125 0.21875 0  0.34375 0.21875 0  0.375 0.21875 0  0.40625 0.21875 0  0.4375 0.21875 0  0.46875 0.21875 0  0.5 0.21875 0  0.53125 0.21875 0  0.5625 0.21875 0  0.59375 0.21875 0  0.625 0.21875 0  0.65625 0.21875 0  0.6875 0.21875 0  0.71875 0.21875 0  0.75 0.21875 0  0.78125 0.21875 0  0.8125 0.21875 0  0.84375 0.21875 0  0.875 0.21875 0  0.90625 0.21875 0  0.9375 0.21875 0  0.96875 0.21875 0  1 0.21875 0  0 0.25 0  0.03125 0.25 0  0.0625 0.25 0  0.09375 0.25 0  0.125 0.25 0  0.15625 0.25 0  0.1875 0.25 0  0.21875 0.25 0  0.25 0.25 0  0.28125 0.25 0  0.3125 0.25 0  0.34375 0.25 0  0.375 0.25 0  0.40625 0.25 0  0.4375 0.25 0  0.46875 0.25 0  0.5 0.25 0  0.53125 0.25 0  0.5625 0.25 0  0.59375 0.25 0  0.625 0.25 0  0.65625 0.25 0  0.6875 0.25 0  0.71875 0.25 0  0.75 0.25 0  0.78125 0.25 0  0.8125 0.25 0  0.84375 0.25 0  0.875 0.25 0  0.90625 0.25 0  0.9375 0.25 0  0.96875 0.25 0  1 0.25 0  0 0.28125 0  0.03125 0.28125 0  0.0625 0.28125 0  0.09375 0.28125 0  0.125 0.28125 0  0.15625 0.28125 0  0.1875 0.28125 0  0.21875 0.28125 0  0.25 0.28125 0  0.28125 0.28125 0  0.3125 0.28125 0  0.34375 0.28125 0  0.375 0.28125 0  0.40625 0.28125 0  0.4375 0.28125 0  0.46875 0.28125 0  0.5 0.28125 0  0.53125 0.28125 0  0.5625 0.28125 0  0.59375 0.28125 0  0.625 0.28125 0  0.65625 0.28125 0  0.6875 0.28125 0  0.71875 0.28125 0  0.75 0.28125 0  0.78125 0.28125 0  0.8125 0.28125 0  0.84375 0.28125 0  0.875 0.28125 0  0.90625 0.28125 0  0.9375 0.28125 0  0.96875 0.28125 0  1 0.28125 0  0 0.3125 0  0.03125 0.3125 0  0.0625 0.3125 0  0.09375 0.3125 0  0.125 0.3125 0  0.15625 0.3125 0  0.1875 0.3125 0  0.21875 0.3125 0  0.25 0.3125 0  0.28125 0.3125 0  0.3125 0.3125 0  0.34375 0.3125 0  0.375 0.3125 0  0.40625 0.3125 0  0.4375 0.3125 0  0.46875 0.3125 0  0.5 0.3125 0  0.53125 0.3125 0  0.5625 0.3125 0  0.59375 0.3125 0  0.625 0.3125 0  0.65625 0.3125 0  0.6875 0.3125 0  0.71875 0.3125 0  0.75 0.3125 0  0.78125 0.3125 0  0.8125 0.3125 0  0.84375 0.3125 0  0.875 0.3125 0  0.90625 0.3125 0  0.9375 0.3125 0  0.96875 0.3125 0  1 0.3125 0  0 0.34375 0  0.03125 0.34375 0  0.0625 0.34375 0  0.09375 0.34375 0  0.125 0.34375 0  0.15625 0.34375 0  0.1875 0.34375 0  0.21875 0.34375 0  0.25 0.34375 0  0.28125 0.34375 0  0.3125 0.34375 0  0.34375 0.34375 0  0.375 0.34375 0  0.40625 0.34375 0  0.4375 0.34375 0  0.46875 0.34375 0  0.5 0.34375 0  0.53125 0.34375 0  0.5625 0.34375 0  0.59375 0.34375 0  0.625 0.34375 0  0.65625 0.34375 0  0.6875 0.34375 0  0.71875 0.34375 0  0.75 0.34375 0  0.78125 0.34375 0  0.8125 0.34375 0  0.84375 0.34375 0  0.875 0.34375 0  0.90625 0.34375 0  0.9375 0.34375 0  0.96875 0.34375 0  1 0.34375 0  0 0.375 0  0.03125 0.375 0  0.0625 0.375 0  0.09375 0.375 0  0.125 0.375 0  0.15625 0.375 0  0.1875 0.375 0  0.21875 0.375 0  0.25 0.375 0  0.28125 0.375 0  0.3125 0.375 0  0.34375 0.375 0  0.375 0.375 0  0.40625 0.375 0  0.4375 0.375 0  0.46875 0.375 0  0.5 0.375 0  0.53125 0.375 0  0.5625 0.375 0  0.59375 0.375 0  0.625 0.375 0  0.65625 0.375 0  0.6875 0.375 0  0.71875 0.375 0  0.75 0.375 0  0.78125 0.375 0  0.8125 0.375 0  0.84375 0.375 0  0.875 0.375 0  0.90625 0.375 0  0.9375 0.375 0  0.96875 0.375 0  1 0.375 0  0 0.40625 0  0.03125 0.40625 0  0.0625 0.40625 0  0.09375 0.40625 0  0.125 0.40625 0  0.15625 0.40625 0  0.1875 0.40625 0  0.21875 0.40625 0  0.25 0.40625 0  0.28125 0.40625 0  0.3125 0.40625 0  0.34375 0.40625 0  0.375 0.40625 0  0.40625 0.40625 0  0.4375 0.40625 0  0.46875 0.40625 0  0.5 0.40625 0  0.53125 0.40625 0  0.5625 0.40625 0  0.59375 0.40625 0  0.625 0.40625 0  0.65625 0.40625 0  0.6875 0.40625 0  0.71875 0.40625 0  0.75 0.40625 0  0.78125 0.40625 0  0.8125 0.40625 0  0.84375 0.40625 0  0.875 0.40625 0  0.90625 0.40625 0  0.9375 0.40625 0  0.96875 0.40625 0  1 0.40625 0  0 0.4375 0  0.03125 0.4375 0  0.0625 0.4375 0  0.09375 0.4375 0  0.125 0.4375 0  0.15625 0.4375 0  0.1875 0.4375 0  0.21875 0.4375 0  0.25 0.4375 0  0.28125 0.4375 0  0.3125 0.4375 0  0.34375 0.4375 0  0.375 0.4375 0  0.40625 0.4375 0  0.4375 0.4375 0  0.46875 0.4375 0  0.5 0.4375 0  0.53125 0.4375 0  0.5625 0.4375 0  0.59375 0.4375 0  0.625 0.4375 0  0.65625 0.4375 0  0.6875 0.4375 0  0.71875 0.4375 0  0.75 0.4375 0  0.78125 0.4375 0  0.8125 0.4375 0  0.84375 0.4375 0  0.875 0.4375 0  0.90625 0.4375 0  0.9375 0.4375 0  0.96875 0.4375 0  1 0.4375 0  0 0.46875 0  0.03125 0.46875 0  0.0625 0.46875 0  0.09375 0.46875 0  0.125 0.46875 0  0.15625 0.46875 0  0.1875 0.46875 0  0.21875 0.46875 0  0.25 0.46875 0  0.28125 0.46875 0  0.3125 0.46875 0  0.34375 0.46875 0  0.375 0.46875 0  0.40625 0.46875 0  0.4375 0.46875 0  0.46875 0.46875 0  0.5 0.46875 0  0.53125 0.46875 0  0.5625 0.46875 0  0.59375 0.46875 0  0.625 0.46875 0  0.65625 0.46875 0  0.6875 0.46875 0  0.71875 0.46875 0  0.75 0.46875 0  0.78125 0.46875 0  0.8125 0.46875 0  0.84375 0.46875 0  0.875 0.46875 0  0.90625 0.46875 0  0.9375 0.46875 0  0.96875 0.46875 0  1 0.46875 0  0 0.5 0  0.03125 0.5 0  0.0625 0.5 0  0.09375 0.5 0  0.125 0.5 0  0.15625 0.5 0  0.1875 0.5 0  0.21875 0.5 0  0.25 0.5 0  0.28125 0.5 0  0.3125 0.5 0  0.34375 0.5 0  0.375 0.5 0  0.40625 0.5 0  0.4375 0.5 0  0.46875 0.5 0  0.5 0.5 0  0.53125 0.5 0  0.5625 0.5 0  0.59375 0.5 0  0.625 0.5 0  0.65625 0.5 0  0.6875 0.5 0  0.71875 0.5 0  0.75 0.5 0  0.78125 0.5 0  0.8125 0.5 0  0.84375 0.5 0  0.875 0.5 0  0.90625 0.5 0  0.9375 0.5 0  0.96875 0.5 0  1 0.5 0  0 0.53125 0  0.03125 0.53125 0  0.0625 0.53125 0  0.09375 0.53125 0  0.125 0.53125 0  0.15625 0.53125 0  0.1875 0.53125 0  0.21875 0.53125 0  0.25 0.53125 0  0.28125 0.53125 0  0.3125 0.53125 0  0.34375 0.53125 0  0.375 0.53125 0  0.40625 0.53125 0  0.4375 0.53125 0  0.46875 0.53125 0  0.5 0.53125 0  0.53125 0.53125 0  0.5625 0.53125 0  0.59375 0.53125 0  0.625 0.53125 0  0.65625 0.53125 0  0.6875 0.53125 0  0.71875 0.53125 0  0.75 0.53125 0  0.78125 0.531
[...]
<PointData  Scalars="v_sol"> 
<DataArray  type="Float64"  Name="v_sol"  format="ascii">4.6472221004534407e-06  3.9037763882495774e-04  5.0806468996315781e-04  1.8866304565161136e-04  -3.4797829880066318e-04  -3.6408372971534611e-04  1.1932508142534386e-03  1.0589595034902052e-03  -9.4933608562769727e-04  -2.0230049926030697e-03  -4.2214889816155343e-03  -6.8235090707077740e-03  -7.7003527029166456e-03  -6.5029684356936370e-03  -4.0316302966492395e-03  -1.2784086531377869e-03  1.2791338697321567e-03  3.3302369170947095e-03  4.9154256324466837e-03  5.9914400755299380e-03  6.6883527052989406e-03  6.7737943679755871e-03  6.0824116664937233e-03  4.4934559433033741e-03  2.1645184466979736e-03  -6.6129138793224681e-04  -2.9193183757131340e-03  -3.2567894952071205e-03  -2.1975618906494845e-03  -1.1228820160101378e-03  -5.0700712423923345e-04  -1.6441838217840421e-04  2.3241983181736176e-05  2.0592636830670368e-04  -2.0601983792487033e-03  -2.8218966172445284e-03  -1.1831764824711394e-03  1.4974348609755109e-03  2.7980826986011704e-04  -7.6128671312200606e-03  -3.2037649184304936e-03  5.9815144328583475e-03  8.9350315124191310e-03  1.9678776579880510e-02  3.0100222718406500e-02  3.4156914342249510e-02  3.2427602207245401e-02  2.5782324577775004e-02  1.5854057674986669e-02  3.3503736194731523e-03  -1.0871296864396848e-02  -2.5680517325330009e-02  -3.8819318192049118e-02  -4.6697425634533031e-02  -4.5698402475713058e-02  -3.4824924426011136e-02  -1.7913457470630705e-02  -2.2661362639131316e-03  9.8829339360819897e-03  1.6820360369152923e-02  1.6212988262429180e-02  1.0508993317761546e-02  5.1932005490782215e-03  2.3704420516325740e-03  6.4289588997519509e-04  -2.5091234951389130e-04  -9.9185616932464282e-06  -7.8478680322890647e-03  -9.3435129410776793e-03  -4.4183902680736201e-03  5.7399380545057645e-03  1.3114308968803836e-02  2.3689346108404993e-03  9.0366672752066213e-03  4.2261471509061788e-02  7.1997115845027534e-02  9.2364337886627401e-02  9.7397235578676841e-02  8.9119716574285635e-02  7.1978447184768771e-02  5.0209074180811657e-02  2.6019541057183855e-02  1.5168601887448091e-04  -2.7467804543124284e-02  -5.6614769284277493e-02  -8.5582823249782447e-02  -1.0976667872372273e-01  -1.2125023970742385e-01  -1.1212642214936770e-01  -8.2033844077223084e-02  -4.3399675168146773e-02  -1.1830157199115463e-02  1.1119532015555305e-02  2.5818620508259997e-02  2.7373435157503925e-02  1.9449508433406110e-02  1.1019046416141662e-02  5.1614635112185439e-03  -2.5872322662311084e-05  -8.5611880935344299e-04  -1.6271373345473562e-02  -1.4593729015825703e-02  -5.4669525060843391e-03  5.2620771828329896e-03  1.8574967365375263e-02  4.6146810309939883e-02  9.2126274377830650e-02  1.3409560466082654e-01  1.5678160010206177e-01  1.5688234654244795e-01  1.4082040164329576e-01  1.1609460355163163e-01  8.7895106781164661e-02  5.8769426060143112e-02  2.9409764421734243e-02  -5.9240266054419520e-04  -3.2126163054511207e-02  -6.6182130869220687e-02  -1.0317394880286798e-01  -1.4160384940122978e-01  -1.7545672350504968e-01  -1.9232401748527245e-01  -1.7735201184798402e-01  -1.2774370124530032e-01  -6.4639499505382267e-02  -1.8746997743505411e-02  8.6915009544139936e-03  2.5262922196793065e-02  2.7249297289173767e-02  2.0359240858780450e-02  1.1915336789398196e-02  7.2855861343743044e-04  -3.1009263481350056e-03  -2.6929188279779807e-02  -1.2922368047037237e-02  9.1326163912160575e-03  2.8055079136106168e-02  7.0690200771899900e-02  1.3327719479363909e-01  1.8619313385868272e-01  2.0969996433178165e-01  2.0435408873825203e-01  1.8133930015873137e-01  1.5063209338724312e-01  1.1839546460127745e-01  8.6935004384466857e-02  5.6704797658085546e-02  2.7146084327948555e-02  -2.3667180062082877e-03  -3.2583772453740632e-02  -6.4197676811622181e-02  -9.8206585647969816e-02  -1.3593813536497246e-01  -1.7825032994983647e-01  -2.2137199751063033e-01  -2.5037999339582695e-01  -2.3964154400405852e-01  -1.7481784107372378e-01  -8.3082940885838730e-02  -1.9001565176471259e-02  1.0784141683584134e-02  2.4342014585629825e-02  2.4685912663179359e-02  1.8125970470252717e-02  1.4961156843643283e-03  -8.1484175735243667e-03  -3.4635345194837255e-02  -3.8078154971864222e-03  3.3277755330118564e-02  8.4736710075313151e-02  1.6012567597341190e-01  2.2700806079086422e-01  2.5465483403664763e-01  2.4498453083733152e-01  2.1571708355073890e-01  1.8071112215014290e-01  1.4720377995524583e-01  1.1603788652520486e-01  8.6340597219569756e-02  5.6840604205037129e-02  2.7057919052576321e-02  -3.3634367581613137e-03  -3.4521311713268485e-02  -6.6355410285708655e-02  -9.8610360875767439e-02  -1.3095430679497155e-01  -1.6444462585558384e-01  -2.0276035829119743e-01  -2.4915499362750909e-01  -2.9164074988469907e-01  -2.9233134604586730e-01  -2.1601791897994901e-01  -9.3307522007258878e-02  -1.2657069324130459e-02  1.6041233362997405e-02  2.5923579281887935e-02  2.0992086779656836e-02  1.9666415983196003e-03  -1.4159425275617466e-02  -3.2306178415902033e-02  2.2606282008208974e-02  8.4617782236967226e-02  1.6966109761150450e-01  2.5421930506624946e-01  2.9040253830601032e-01  2.7902536528608396e-01  2.4621883667697519e-01  2.0989645104629123e-01  1.7787513226424126e-01  1.4831342637052530e-01  1.1907321005474145e-01  8.9092329805667600e-02  5.8695490607344969e-02  2.7975471562045440e-02  -3.0694737430211473e-03  -3.4597706094195310e-02  -6.6857356779438354e-02  -9.9857822667643190e-02  -1.3337901496568394e-01  -1.6612859121533174e-01  -1.9715754046090131e-01  -2.2945015243089448e-01  -2.7319253904346680e-01  -3.2449674075655854e-01  -3.3419516652021153e-01  -2.4030590083693512e-01  -8.4851841516992890e-02  1.4617504241857563e-03  2.1784966360564480e-02  2.5175911590132286e-02  1.6607816217128187e-03  -1.8027549793258043e-02  -1.4446379895858973e-02  6.5526991179528732e-02  1.5717030492966180e-01  2.5992139543707465e-01  3.1464662093501183e-01  3.0970483934767701e-01  2.7876666253472049e-01  2.4273734747987194e-01  2.1199040077554418e-01  1.8263737203469937e-01  1.5234530369230465e-01  1.2134786543534141e-01  9.0431151502844059e-02  5.9614087767491809e-02  2.8594657331389217e-02  -2.7165736317635099e-03  -3.4466789209312620e-02  -6.6539633685495536e-02  -9.8977896296737117e-02  -1.3171473495489291e-01  -1.6505893932129045e-01  -1.9823557184669358e-01  -2.2932876755336196e-01  -2.5879406716622527e-01  -3.0075742128392963e-01  -3.5772435777958833e-01  -3.6580167962903398e-01  -2.3475969002493244e-01  -5.3175840496606203e-02  2.0500863683584235e-02  2.3537092504681754e-02  4.0783222099620700e-03  -1.5806088406532120e-02  2.0094840838982525e-02  1.2548045597981786e-01  2.4089870728933496e-01  3.2582572601415344e-01  3.4045335134495780e-01  3.1386446277440655e-01  2.7602016442651511e-01  2.4392828654537310e-01  2.1483232957796125e-01  1.8389305004120210e-01  1.5346495865699369e-01  1.2298374604945403e-01  9.2528764378240688e-02  6.1399227503601085e-02  3.0099622003775861e-02  -1.5779762777549330e-03  -3.3531660767497300e-02  -6.5867873427317855e-02  -9.8606520169965670e-02  -1.3149634025989179e-01  -1.6441119411826316e-01  -1.9719477571990371e-01  -2.2986999617077394e-01  -2.6015501214215081e-01  -2.8840517810943395e-01  -3.3307056791685014e-01  -3.9503455179374686e-01  -3.7969300172810339e-01  -1.8335817516830200e-01  -7.5253287740345062e-03  2.8554493910050743e-02  6.7580188336473475e-03  -6.8592181892717201e-03  7.0035597555900719e-02  1.9531142617705410e-01  3.1005452850192572e-01  3.6179595117926905e-01  3.4662028693367519e-01  3.0862402950104756e-01  2.7632971767888637e-01  2.4888530791252078e-01  2.1820569665550299e-01  1.8796801179272002e-01  1.5742083093240020e-01  1.2603138471696418e-01  9.4411144544553169e-02  6.2839627191817959e-02  3.1322240748701602e-02  -5.0095209016630057e-04  -3.2459823778532113e-02  -6.4740299320123040e-02  -9.7088955831408377e-02  -1.2977341384787158e-01  -1.6256597209115600e-01  -1.9581094639539787e-01  -2.2916986887701313e-01  -2.6238871838852718e-01  -2.9093536594628100e-01  -3.1852379698218458e-01  -3.7237160168285199e-01  -4.3388455154193334e-01  -3.5024219291887748e-01  -8.4875207816521761e-02  3.6131125333185070e-02  -6.4512614960744183e-03  7.9381861693842305e-03  1.3050300514404017e-01  2.6072183620260175e-01  3.6177424128360414e-01  3.7877562949478905e-01  3.4622486686847331e-01  3.1230280187730075e-01  2.8264130076044042e-01  2.5148857020883775e-01  2.2048042233042645e-01  1.9006678205433675e-01  1.5818473587930623e-01  1.2708867808617916e-01  9.6143443394041961e-02  6.4937664735787062e-02  3.3209180572819318e-02  1.2185883345844492e-03  -3.0981294477364144e-02  -6.3505308211012898e-02  -9.6178136759956040e-02  -1.2910196947778776e-01  -1.6183239415217299e-01  -1.9441616709183857e-01  -2.2683359948869758e-01  -2.6070880865515267e-01  -2.9494762522388068e-01  -3.2113721828141650e-01  -3.5170479235785357e-01  -4.2273584565644384e-01  -4.5440895347605992e-01  -2.3236308439896952e-01  1.2809915108176010e-02  1.6628884585801747e-02  2.6231312109850496e-02  1.9152618742930261e-01  3.1641736639870788e-01  3.9445855342428160e-01  3.8432485026342678e-01  3.4825617042877655e-01  3.1424525731305053e-01  2.8465389777331573e-01  2.5510735435546250e-01  2.2482035020172109e-01  1.9319021046754753e-01  1.6197308389661549e-01  1.3114111203185552e-01  9.9057347569933368e-02  6.6918871966666238e-02  3.4848198326828506e-02  2.8459813518516069e-03  -2.9372566726238111e-02  -6.1724194364424563e-02  -9.4259904438429840e-02  -1.2702255328807108e-01  -1.6014672180399606e-01  -1.9363418801360532e-01  -2.2684450150811145e-01  -2.5905188732253870e-01  -2.9323018569295434e-01  -3.2726998515956418e-01  -3.4998400571027549e-01  -3.9599968119233203e-01  -4.8123518545403154e-01  -3.8957511848954818e-01  -5.0187981059367087e-02  4.5276421947969284e-02  4.1768862826403200e-02  2.4773211689372351e-01  3.5887949215571768e-01  4.1663484409362184e-01  3.8952142599776002e-01  3.5180845494419044e-01  3.2110821221731994e-01  2.9134931752460996e-01  2.5873249942252097e-01  2.2685664680828888e-01  1.9515365808677554e-01  1.6413767463883935e-01  1.3188056224155595e-01  9.9979497750734878e-02  6.8757601437636803e-02  3.7018615705000799e-02  4.9286077962721799e-03  -2.7475090819130053e-02  -6.0007682922067290e-02  -9.2828030744879150e-02  -1.2569401279506401e-01  -1.5863980330024921e-01  -1.9151094355167961e-01  -2.2514426659239703e-01  -2.5889446073034045e-01  -2.9207296124633442e-01  -3.2766717355037622e-01  -3.5731855362624032e-01  -3.8258663702591855e-01  -4.6411844489774229e-01  -4.9243859124310885e-01  -1.5321339334792908e-01  4.8492774540694304e-02  5.2528375710304553e-02  2.9317146932507043e-01  3.9067612358282328e-01  4.3054288159773790e-01  3.9255981151016645e-01  3.5770582269456247e-01  3.2417702045751412e-01  2.9277972888773574e-01  2.6180498271960861e-01  2.3074400433893580e-01  1.9909487287994568e-01  1.6724636102517193e-01  1.3514781435673404e-01  1.0402329096343005e-01  7.1696122481027802e-02  3.9124380456453271e-02  6.8996707210493150e-03  -2.5389620619832038e-02  -5.7776755685677798e-02  -9.0444664003087469e-02  -1.2331772089510702e-01  -1.5672037496395694e-01  -1.9030804091181508e-01  -2.2390314439954834e-01  -2.5767497035854864e-01  -2.9128179802155163e-01  -3.2661285570375070e-01  -3.6264242571582378e-01  -3.8375417135165918e-01  -4.3954652676851358e-01  -5.3763250432076526e-01  -2.8134975499303722e-01  4.9393565728111918e-02  5.5563556561397304e-02  3.2696466785972605e-01  4.1246294319073851e-01  4.4115272530489957e-01  3.9880176703161857e-01  3.6258044770089992e-01  3.3039541954990931e-01  2.9950795177359951e-01  2.6554088186503394e-01  2.3302315352781247e-01  2.0084106052133707e-01  1.6873167527999416e-01  1.3702817546084317e-01  1.0493232327251710e-01  7.2442822828041931e-02  4.1143902611428446e-02  9.2617253134904490e-03  -2.3066886241962088e-02  -5.5586567949833889e-02  -8.8341601337869585e-02  -1.2124943095343063e-01  -1.5431380075976706e-01  -1.8772112043507017e-01  -2.2166304225466341e-01  -2.5642087187181994e-01  -2.9108472255892026e-01  -3.2500159177171800e-01  -3.6421285920763558e-01  -3.9185147065737680e-01  -4.2349955318237026e-01  -5.4540002213414429e-01  -4.0262598503070773e-01  3.8892209957920712e-02  5.2232388923957263e-02  3.4683407453734239e-01  4.2717450973281901e-01  4.4774485341582482e-01  4.0241306937407201e-01  3.6789394053753849e-01  3.3290449741309186e-01  2.9991840882985715e-01  2.6783112436586198e-01  2.3651493488647027e-01  2.0406492497080839e-01  1.7203126567377786e-01  1.4005805009199751e-01  1.0780363213364297e-01  7.6329412675477992e-02  4.4359036902620955e-02  1.1518575954250326e-02  -2.0587395788884803e-02  -5.2893741540287753e-02  -8.5378536796028873e-02  -1.1830542028293267e-01  -1.5165465723427243e-01  -1.8550710285337865e-01  -2.1953969093376291e-01  -2.5384153708556167e-01  -2.8961158263952103e-01  -3.2481179670150090e-01  -3.6291277907097258e-01  -3.9973940229211075e-01  -4.1894536816414701e-01  -5.3790123899917808e-01  -4.9845146998967321e-01  1.7142428837467576e-02  4.2718975603376487e-02  3.5345565754067154e-01  4.3471331509507066e-01  4.5238125541573387e-01  4.0854191697703512e-01  3.7107671429975247e-01  3.3794675529911072e-01  3.0590661652498385e-01  2.7132965435726192e-01  2.3816574207809560e-01  2.0540032598771135e-01  1.7336280350984684e-01  1.4114720939963635e-01  1.0925792103534507e-01  7.7511494263380276e-02  4.5101866380056012e-02  1.3715045884234332e-02  -1.7725058379106873e-02  -5.0173349184879555e-02  -8.2527232102417469e-02  -1.1528358485442539e-01  -1.4825434713124430e-01  -1.8179343172575241e-01  -2.1620396077712392e-01  -2.5140356348461668e-01  -2.8722359200449593e-01  -3.2359958496114721e-01  -3.6095222238256397e-01  -4.0484193513309302e-01  -4.2027448870697359e-01  -5.2532494400251939e-01  -5.6840660234478080e-01  -1.2771769341809647e-02  2.9833812855021350e-02  3.4533112808411026e-01  4.3664818298702701e-01  4.5339171972651227e-01  4.1096350693885159e-01  3.7433106354329926e-01  3.3905904790382591e-01  3.0487190837431694e-01  2.7254155890962373e-01  2.4073181949874051e-01  2.0810556607223576e-01  1.7595053280931186e-01  1.4380553092495799e-01  1.1210213393806491e-01  8.0259998606622696e-02  4.8766202683846266e-02  1.7492444440592662e-02  -1.5044522288966440e-02  -4.6992088404584846e-02  -7.8812818922387742e-02  -1.1144289533266422e-01  -1.4441481698518549e-01  -1.7820542625669844e-01  -2.1228333587978457e-01  -2.4739737971805956e-01  -2.8339030037311985e-01  -3.2191503991053710e-01  -3.5782210437229672e-01  -4.0629965062568718e-01  -4.2433315756278850e-01  -5.1220149701410578e-01  -6.1660011246874125e-01  -4.4228211501397045e-02  1.4731025038601858e-02  3.2320800618409345e-01  4.3163664994439271e-01  4.5227507637829878e-01  4.1564009048866557e-01  3.7541371906556725e-01  3.4260162717246018e-01  3.0990796897002987e-01  2.7513494016865048e-01  2.4149595395354775e-01  2.0870729314383837e-01  1.7655996831477563e-01  1.4453939711016259e-01  1.1293689660992903e-01  8.1389936799341200e-02  5.0214908687041968e-02  1.8659454744804745e-02  -1.2628679508947294e-02  -4.3192240852051915e-02  -7.5174616748680548e-02  -1.0733500628040687e-01  -1.3959045960314495e-01  -1.7300608900665312e-01  -2.0696667066114666e-01  -2.4290313415150708e-01  -2.7837717168893733e-01  -3.1781704368662272e-01  -3.5396881061483104e-01  -4.0438196869494814e-01  -4.2685275232300568e-01  -4.9840828044035451e-01  -6.4955674074964409e-01  -7.5055470482678799e-02  4.5215763724588943e-04  2.8606054657921781e-01  4.1990508883358979e-01  4.4709304348547807e-01  4.1611924964089819e-01  3.7720105010905808e-01  3.4172735684105759e-01  3.0733574256145774e-01  2.7509691216372473e-01  2.4306989688907354e-01  2.1047130815784307e-01  1.7832207379770143e-01  1.4649798885444540e-01  1.1513423720654521e-01  8.3953409463593059e-02  5.3124130243167977e-02  2.2303455573142030e-02  -8.0968301105317567e-03  -3.9345069258520153e-02  -7.1052002472329859e-02  -1.0203812835378148e-01  -1.3426833923973838e-01  -1.6751346159538202e-01  -2.0075460565716205e-01  -2.3630982792799202e-01  -2.7168008242563585e-01  -3.1222448730020302e-01  -3.4802206524949553e-01  -3.9915377972524679e-01  -4.2735520661906340e-01  -4.8391985429960011e-01  -6.7049251569219881e-01  -1.0283062657908537e-01  -1.1658856972429427e-02  2.3607277017531300e-01  3.9835844057451919e-01  4.3921537634018604e-01  4.1860046075541812e-01  3.7742791139632642e-01  3.4396019309663856e-01  3.1148487346822323e-01  2.7644377966953887e-01  2.4266578462090907e-01  2.1000674733267760e-01  1.7798933248955809e-01  1.4635371001049857e-01  1.1529970589516737e-01  8.4553180511668616e-02  5.4285163892885770e-02  2.4072708465269758e-02  -5.9808233030376450e-03  -3.6314353081712832e-02  -6.5964958971762730e-02  -9.6387838544962121e-02  -1.2816324704955226e-01  -1.6001226128678922e-01  -1.9301171220778815e-01  -2.2866087035685570e-01  -2.6333152204149096e-01  -3.0369002941537770e-01  -3.4023001844634854e-01  -3.9079051145403992e-01  -4.2370034061763795e-01  -4.6744381755370740e-01  -6.8314827358722496e-01  -1.2826026457718712e-01  -1.9296174589958724e-02  1.7587596218357543e-01  3.6520092573569912e-01  4.2529259506617229e-01  4.1573027976118937e-01  3.7944429886985720e-01  3.4128911465009254e-01  3.0731349709109823e-01  2.7536229592243555e-01  2.4310308223455132e-01  2.1052670898978945e-01  1.7859811823147165e-01  1.4722134254833663e-01  1.1660353630425159e-01  8.6370039241263158e-02  5.6745014059807787e-02  2.7305422668630851e-02  -1.7254409010700981e-03  -3.0819543285525993e-02  -6.0065605133239219e-02  -9.0562289037498328e-02  -1.2094214810731850e-01  -1.5180174349109191e-01  -1.8439172047171029e-01  -2.1841269408054581e-01  -2.5286217603091249e-01  -2.9317585408640301e-01  -3.2939129329176414e-01  -3.7918180276373659e-01  -4.1652043171205416e-01  -4.4878985293558832e-01  -6.8832740993603314e-01  -1.5072828199504668e-01  -2.2463747960321866e-02  1.1366870036820466e-01  3.1534030084899428e-01  4.0519757529348338e-01  4.1277267150056024e-01  3.7984196738359138e-01  3.4395216367943482e-01  3.1044799040795573e-01  2.7522299496415120e-01  2.4125503225677306e-01  2.0862205092562633e-01  1.7688794137071553e-01  1.4574639277291973e-01  1.1558085168365501e-01  8.6034722602265357e-02  5.7262157260400126e-02  2.8819692199779846e-02  8.1172737722695956e-04  -2.7359031345298011e-02  -5.5473359457538583e-02  -8.3862987931913366e-02  -1.1204115662537480e-01  -1.4217863169825945e-01  -1.7387914873852786e-01  -2.0645903732913556e-01  -2.4057042801806727e-01  -2.7922463613134252e-01  -3.1588262189336669e-01  -3.6432554128257139e-01  -4.0419346435353792e-01  -4.2697323860625452e-01  -6.8824703596409709e-01  -1.7112547907904008e-01  -2.0135272704659101e-02  5.8018496485370413e-02  2.4842274235764408e-01  3.7111174566701238e-01  4.0059975398458286e-01  3.8099018538174984e-01  3.4122303134596665e-01  3.0499269944733015e-01  2.7310564132578852e-01  2.4035460919276266e-01  2.0741708448301518e-01  1.7572067875682146e-01  1.4502589933554327e-01  1.1539724096438730e-01  8.6662510222427547e-02  5.8782641674335480e-02  3.1483810289190804e-02  4.7281349171251763e-03  -2.1891754219415142e-02  -4.8269714022955441e-02  -7.5250092495139254e-02  -1.0293395334025304e-01  -1.3243188534296313e-01  -1.6140860441191010e-01  -1.9194269410322737e-01  -2.2596151085414221e-01  -2.6250017369821610e-01  -2.9888736581198738e-01  -3.4581606241137258e-01  -3.8742747418604251e-01  -4.0202603995523462e-01  -6.8324134550477988e-01  -1.8796119824144925e-01  -1.2479583117988214e-02  1.7618860046384348e-02  1.6790033459772857e-01  3.2072857641503577e-01  3.8157379165655286e-01  3.7641160298716142e-01  3.4627608394139359e-01  3.0831260868445515e-01  2.7078001240076310e-01  2.3646025337144447e-01  2.0362662132905895e-01  1.7177280416313315e-01  1.4147991389927358e-01  1.1240877545205624e-01  8.4744621114554039e-02  5.8033954636918503e-02  3.2257198891876705e-02  7.0143487075518887e-03  -1.7908776437386458e-02  -4.2798827679616049e-02  -6.8099420673091882e-02  -9.3573127912209536e-02