<?xml version="1.0"?>
<VTKFile type="UnstructuredGrid"  version="0.1"  >
<UnstructuredGrid>
<Piece  NumberOfPoints="1089" NumberOfCells="1024">
<Points>
<DataArray  type="Float64"  NumberOfComponents="3"  format="ascii">0 0 0  0.03125 0 0  0.0625 0 0  0.09375 0 0  0.125 0 0  0.15625 0 0  0.1875 0 0  0.21875 0 0  0.25 0 0  0.28125 0 0  0.3125 0 0  0.34375 0 0  0.375 0 0  0.40625 0 0  0.4375 0 0  0.46875 0 0  0.5 0 0  0.53125 0 0  0.5625 0 0  0.59375 0 0  0.625 0 0  0.65625 0 0  0.6875 0 0  0.71875 0 0  0.75 0 0  0.78125 0 0  0.8125 0 0  0.84375 0 0  0.875 0 0  0.90625 0 0  0.9375 0 0  0.96875 0 0  1 0 0  0 0.03125 0  0.03125 0.03125 0  0.0625 0.03125 0  0.09375 0.03125 0  0.125 0.03125 0  0.15625 0.03125 0  0.1875 0.03125 0  0.21875 0.03125 0  0.25 0.03125 0  0.28125 0.03125 0  0.3125 0.03125 0  0.34375 0.03125 0  0.375 0.03125 0  0.40625 0.03125 0  0.4375 0.03125 0  0.46875 0.03125 0  0.5 0.03125 0  0.53125 0.03125 0  0.5625 0.03125 0  0.59375 0.03125 0  0.625 0.03125 0  0.65625 0.03125 0  0.6875 0.03125 0  0.71875 0.03125 0  0.75 0.03125 0  0.78125 0.03125 0  0.8125 0.03125 0  0.84375 0.03125 0  0.875 0.03125 0  0.90625 0.03125 0  0.9375 0.03125 0  0.96875 0.03125 0  1 0.03125 0  0 0.0625 0  0.03125 0.0625 0  0.0625 0.0625 0  0.09375 0.0625 0  0.125 0.0625 0  0.15625 0.0625 0  0.1875 0.0625 0  0.21875 0.0625 0  0.25 0.0625 0  0.28125 0.0625 0  0.3125 0.0625 0  0.34375 0.0625 0  0.375 0.0625 0  0.40625 0.0625 0  0.4375 0.0625 0  0.46875 0.0625 0  0.5 0.0625 0  0.53125 0.0625 0  0.5625 0.0625 0  0.59375 0.0625 0  0.625 0.0625 0  0.65625 0.0625 0  0.6875 0.0625 0  0.71875 0.0625 0  0.75 0.0625 0  0.78125 0.0625 0  0.8125 0.0625 0  0.84375 0.0625 0  0.875 0.0625 0  0.90625 0.0625 0  0.9375 0.0625 0  0.96875 0.0625 0  1 0.0625 0  0 0.09375 0  0.03125 0.09375 0  0.0625 0.09375 0  0.09375 0.09375 0  0.125 0.09375 0  0.15625 0.09375 0  0.1875 0.09375 0  0.21875 0.09375 0  0.25 0.09375 0  0.28125 0.09375 0  0.3125 0.09375 0  0.34375 0.09375 0  0.375 0.09375 0  0.40625 0.09375 0  0.4375 0.09375 0  0.46875 0.09375 0  0.5 0.09375 0  0.53125 0.09375 0  0.5625 0.09375 0  0.59375 0.09375 0  0.625 0.09375 0  0.65625 0.09375 0  0.6875 0.09375 0  0.71875 0.09375 0  0.75 0.09375 0  0.78125 0.09375 0  0.8125 0.09375 0  0.84375 0.09375 0  0.875 0.09375 0  0.90625 0.09375 0  0.9375 0.09375 0  0.96875 0.09375 0  1 0.09375 0  0 0.125 0  0.03125 0.125 0  0.0625 0.125 0  0.09375 0.125 0  0.125 0.125 0  0.15625 0.125 0  0.1875 0.125 0  0.21875 0.125 0  0.25 0.125 0  0.28125 0.125 0  0.3125 0.125 0  0.34375 0.125 0  0.375 0.125 0  0.40625 0.125 0  0.4375 0.125 0  0.46875 0.125 0  0.5 0.125 0  0.53125 0.125 0  0.5625 0.125 0  0.59375 0.125 0  0.625 0.125 0  0.65625 0.125 0  0.6875 0.125 0  0.71875 0.125 0  0.75 0.125 0  0.78125 0.125 0  0.8125 0.125 0  0.84375 0.125 0  0.875 0.125 0  0.90625 0.125 0  0.9375 0.125 0  0.96875 0.125 0  1 0.125 0  0 0.15625 0  0.03125 0.15625 0  0.0625 0.15625 0  0.09375 0.15625 0  0.125 0.15625 0  0.15625 0.15625 0  0.1875 0.15625 0  0.21875 0.15625 0  0.25 0.15625 0  0.28125 0.15625 0  0.3125 0.15625 0  0.34375 0.15625 0  0.375 0.15625 0  0.40625 0.15625 0  0.4375 0.15625 0  0.46875 0.15625 0  0.5 0.15625 0  0.53125 0.15625 0  0.5625 0.15625 0  0.59375 0.15625 0  0.625 0.15625 0  0.65625 0.15625 0  0.6875 0.15625 0  0.71875 0.15625 0  0.75 0.15625 0  0.78125 0.15625 0  0.8125 0.15625 0  0.84375 0.15625 0  0.875 0.15625 0  0.90625 0.15625 0  0.9375 0.15625 0  0.96875 0.15625 0  1 0.15625 0  0 0.1875 0  0.03125 0.1875 0  0.0625 0.1875 0  0.09375 0.1875 0  0.125 0.1875 0  0.15625 0.1875 0  0.1875 0.1875 0  0.21875 0.1875 0  0.25 0.1875 0  0.28125 0.1875 0  0.3125 0.1875 0  0.34375 0.1875 0  0.375 0.1875 0  0.40625 0.1875 0  0.4375 0.1875 0  0.46875 0.1875 0  0.5 0.1875 0  0.53125 0.1875 0  0.5625 0.1875 0  0.59375 0.1875 0  0.625 0.1875 0  0.65625 0.1875 0  0.6875 0.1875 0  0.71875 0.1875 0  0.75 0.1875 0  0.78125 0.1875 0  0.8125 0.1875 0  0.84375 0.1875 0  0.875 0.1875 0  0.90625 0.1875 0  0.9375 0.1875 0  0.96875 0.1875 0  1 0.1875 0  0 0.21875 0  0.03125 0.21875 0  0.0625 0.21875 0  0.09375 0.21875 0  0.125 0.21875 0  0.15625 0.21875 0  0.1875 0.21875 0  0.21875 0.21875 0  0.25 0.21875 0  0.28125 0.21875 0  0.3125 0.21875 0  0.34375 0.21875 0  0.375 0.21875 0  0.40625 0.21875 0  0.4375 0.21875 0  0.46875 0.21875 0  0.5 0.21875 0  0.53125 0.21875 0  0.5625 0.21875 0  0.59375 0.21875 0  0.625 0.21875 0  0.65625 0.21875 0  0.6875 0.21875 0  0.71875 0.21875 0  0.75 0.21875 0  0.78125 0.21875 0  0.8125 0.21875 0  0.84375 0.21875 0  0.875 0.21875 0  0.90625 0.21875 0  0.9375 0.21875 0  0.96875 0.21875 0  1 0.21875 0  0 0.25 0  0.03125 0.25 0  0.0625 0.25 0  0.09375 0.25 0  0.125 0.25 0  0.15625 0.25 0  0.1875 0.25 0  0.21875 0.25 0  0.25 0.25 0  0.28125 0.25 0  0.3125 0.25 0  0.34375 0.25 0  0.375 0.25 0  0.40625 0.25 0  0.4375 0.25 0  0.46875 0.25 0  0.5 0.25 0  0.53125 0.25 0  0.5625 0.25 0  0.59375 0.25 0  0.625 0.25 0  0.65625 0.25 0  0.6875 0.25 0  0.71875 0.25 0  0.75 0.25 0  0.78125 0.25 0  0.8125 0.25 0  0.84375 0.25 0  0.875 0.25 0  0.90625 0.25 0  0.9375 0.25 0  0.96875 0.25 0  1 0.25 0  0 0.28125 0  0.03125 0.28125 0  0.0625 0.28125 0  0.09375 0.28125 0  0.125 0.28125 0  0.15625 0.28125 0  0.1875 0.28125 0  0.21875 0.28125 0  0.25 0.28125 0  0.28125 0.28125 0  0.3125 0.28125 0  0.34375 0.28125 0  0.375 0.28125 0  0.40625 0.28125 0  0.4375 0.28125 0  0.46875 0.28125 0  0.5 0.28125 0  0.53125 0.28125 0  0.5625 0.28125 0  0.59375 0.28125 0  0.625 0.28125 0  0.65625 0.28125 0  0.6875 0.28125 0  0.71875 0.28125 0  0.75 0.28125 0  0.78125 0.28125 0  0.8125 0.28125 0  0.84375 0.28125 0  0.875 0.28125 0  0.90625 0.28125 0  0.9375 0.28125 0  0.96875 0.28125 0  1 0.28125 0  0 0.3125 0  0.03125 0.3125 0  0.0625 0.3125 0  0.09375 0.3125 0  0.125 0.3125 0  0.15625 0.3125 0  0.1875 0.3125 0  0.21875 0.3125 0  0.25 0.3125 0  0.28125 0.3125 0  0.3125 0.3125 0  0.34375 0.3125 0  0.375 0.3125 0  0.40625 0.3125 0  0.4375 0.3125 0  0.46875 0.3125 0  0.5 0.3125 0  0.53125 0.3125 0  0.5625 0.3125 0  0.59375 0.3125 0  0.625 0.3125 0  0.65625 0.3125 0  0.6875 0.3125 0  0.71875 0.3125 0  0.75 0.3125 0  0.78125 0.3125 0  0.8125 0.3125 0  0.84375 0.3125 0  0.875 0.3125 0  0.90625 0.3125 0  0.9375 0.3125 0  0.96875 0.3125 0  1 0.3125 0  0 0.34375 0  0.03125 0.34375 0  0.0625 0.34375 0  0.09375 0.34375 0  0.125 0.34375 0  0.15625 0.34375 0  0.1875 0.34375 0  0.21875 0.34375 0  0.25 0.34375 0  0.28125 0.34375 0  0.3125 0.34375 0  0.34375 0.34375 0  0.375 0.34375 0  0.40625 0.34375 0  0.4375 0.34375 0  0.46875 0.34375 0  0.5 0.34375 0  0.53125 0.34375 0  0.5625 0.34375 0  0.59375 0.34375 0  0.625 0.34375 0  0.65625 0.34375 0  0.6875 0.34375 0  0.71875 0.34375 0  0.75 0.34375 0  0.78125 0.34375 0  0.8125 0.34375 0  0.84375 0.34375 0  0.875 0.34375 0  0.90625 0.34375 0  0.9375 0.34375 0  0.96875 0.34375 0  1 0.34375 0  0 0.375 0  0.03125 0.375 0  0.0625 0.375 0  0.09375 0.375 0  0.125 0.375 0  0.15625 0.375 0  0.1875 0.375 0  0.21875 0.375 0  0.25 0.375 0  0.28125 0.375 0  0.3125 0.375 0  0.34375 0.375 0  0.375 0.375 0  0.40625 0.375 0  0.4375 0.375 0  0.46875 0.375 0  0.5 0.375 0  0.53125 0.375 0  0.5625 0.375 0  0.59375 0.375 0  0.625 0.375 0  0.65625 0.375 0  0.6875 0.375 0  0.71875 0.375 0  0.75 0.375 0  0.78125 0.375 0  0.8125 0.375 0  0.84375 0.375 0  0.875 0.375 0  0.90625 0.375 0  0.9375 0.375 0  0.96875 0.375 0  1 0.375 0  0 0.40625 0  0.03125 0.40625 0  0.0625 0.40625 0  0.09375 0.40625 0  0.125 0.40625 0  0.15625 0.40625 0  0.1875 0.40625 0  0.21875 0.40625 0  0.25 0.40625 0  0.28125 0.40625 0  0.3125 0.40625 0  0.34375 0.40625 0  0.375 0.40625 0  0.40625 0.40625 0  0.4375 0.40625 0  0.46875 0.40625 0  0.5 0.40625 0  0.53125 0.40625 0  0.5625 0.40625 0  0.59375 0.40625 0  0.625 0.40625 0  0.65625 0.40625 0  0.6875 0.40625 0  0.71875 0.40625 0  0.75 0.40625 0  0.78125 0.40625 0  0.8125 0.40625 0  0.84375 0.40625 0  0.875 0.40625 0  0.90625 0.40625 0  0.9375 0.40625 0  0.96875 0.40625 0  1 0.40625 0  0 0.4375 0  0.03125 0.4375 0  0.0625 0.4375 0  0.09375 0.4375 0  0.125 0.4375 0  0.15625 0.4375 0  0.1875 0.4375 0  0.21875 0.4375 0  0.25 0.4375 0  0.28125 0.4375 0  0.3125 0.4375 0  0.34375 0.4375 0  0.375 0.4375 0  0.40625 0.4375 0  0.4375 0.4375 0  0.46875 0.4375 0  0.5 0.4375 0  0.53125 0.4375 0  0.5625 0.4375 0  0.59375 0.4375 0  0.625 0.4375 0  0.65625 0.4375 0  0.6875 0.4375 0  0.71875 0.4375 0  0.75 0.4375 0  0.78125 0.4375 0  0.8125 0.4375 0  0.84375 0.4375 0  0.875 0.4375 0  0.90625 0.4375 0  0.9375 0.4375 0  0.96875 0.4375 0  1 0.4375 0  0 0.46875 0  0.03125 0.46875 0  0.0625 0.46875 0  0.09375 0.46875 0  0.125 0.46875 0  0.15625 0.46875 0  0.1875 0.46875 0  0.21875 0.46875 0  0.25 0.46875 0  0.28125 0.46875 0  0.3125 0.46875 0  0.34375 0.46875 0  0.375 0.46875 0  0.40625 0.46875 0  0.4375 0.46875 0  0.46875 0.46875 0  0.5 0.46875 0  0.53125 0.46875 0  0.5625 0.46875 0  0.59375 0.46875 0  0.625 0.46875 0  0.65625 0.46875 0  0.6875 0.46875 0  0.71875 0.46875 0  0.75 0.46875 0  0.78125 0.46875 0  0.8125 0.46875 0  0.84375 0.46875 0  0.875 0.46875 0  0.90625 0.46875 0  0.9375 0.46875 0  0.96875 0.46875 0  1 0.46875 0  0 0.5 0  0.03125 0.5 0  0.0625 0.5 0  0.09375 0.5 0  0.125 0.5 0  0.15625 0.5 0  0.1875 0.5 0  0.21875 0.5 0  0.25 0.5 0  0.28125 0.5 0  0.3125 0.5 0  0.34375 0.5 0  0.375 0.5 0  0.40625 0.5 0  0.4375 0.5 0  0.46875 0.5 0  0.5 0.5 0  0.53125 0.5 0  0.5625 0.5 0  0.59375 0.5 0  0.625 0.5 0  0.65625 0.5 0  0.6875 0.5 0  0.71875 0.5 0  0.75 0.5 0  0.78125 0.5 0  0.8125 0.5 0  0.84375 0.5 0  0.875 0.5 0  0.90625 0.5 0  0.9375 0.5 0  0.96875 0.5 0  1 0.5 0  0 0.53125 0  0.03125 0.53125 0  0.0625 0.53125 0  0.09375 0.53125 0  0.125 0.53125 0  0.15625 0.53125 0  0.1875 0.53125 0  0.21875 0.53125 0  0.25 0.53125 0  0.28125 0.53125 0  0.3125 0.53125 0  0.34375 0.53125 0  0.375 0.53125 0  0.40625 0.53125 0  0.4375 0.53125 0  0.46875 0.53125 0  0.5 0.53125 0  0.53125 0.53125 0  0.5625 0.53125 0  0.59375 0.53125 0  0.625 0.53125 0  0.65625 0.53125 0  0.6875 0.53125 0  0.71875 0.53125 0  0.75 0.53125 0  0.78125 0.531
[...]
<PointData  Scalars="u_sol"> 
<DataArray  type="Float64"  Name="u_sol"  format="ascii">-2.9791877933622292e-05  -9.4699971483273745e-05  2.5550352386656739e-04  6.7270172164402172e-04  9.8908356041597597e-04  1.0507121854662898e-03  1.3928283021483669e-03  3.8544811254000522e-03  3.8494224832007562e-03  3.8383007799815236e-03  1.4384231494036450e-02  2.5522031431623772e-02  2.3315601452939164e-02  1.0208726235384231e-02  -5.6896571589290538e-03  -1.6906165296855076e-02  -1.8680151686377135e-02  -9.1211568909356257e-03  1.0881675204254029e-02  3.7346439177034965e-02  6.2998845999897163e-02  7.8240771461076233e-02  7.2505482597335649e-02  4.6469985791938409e-02  1.5908629767642155e-02  -2.8719425643805997e-03  -4.8601697601665427e-03  -1.6733644998888166e-03  -9.5518235489802975e-04  -5.8890833387305569e-04  -3.8940066082950633e-04  -1.1555720251924865e-04  1.9439373062559287e-05  -2.2750536459850484e-04  1.0667839046617164e-03  4.3893528221769047e-03  7.8098529490165658e-03  9.5853900883486800e-03  1.0687415717883599e-02  1.0302731472046868e-02  9.4983552813148828e-03  7.4939318494255556e-03  -8.9819503684312810e-03  -4.7346071589569459e-02  -9.6073252101243761e-02  -1.4038418565948815e-01  -1.7372576274603924e-01  -1.9386727660025646e-01  -2.0006203403136932e-01  -1.9214132146087753e-01  -1.7023719977291724e-01  -1.3531096003872986e-01  -8.9717513912205490e-02  -3.8041900457955941e-02  1.2410945524124131e-02  5.3168432598473030e-02  7.4069886049028533e-02  7.1591449120178910e-02  5.4691742808711301e-02  3.2238629515944361e-02  1.4657129883829747e-02  5.9101732304787189e-03  1.6095202665356682e-03  -7.3907904702461342e-06  -2.8768851125098309e-04  2.6272683125095823e-05  -4.8818577141218145e-04  2.2605114646709642e-03  7.4313886412974497e-03  1.0900353879983600e-02  1.0961094997798957e-02  8.2981151179250465e-03  3.4897438686288017e-03  -2.0032386491918505e-02  -7.2202614972463025e-02  -1.3677014121265499e-01  -1.9932113878917129e-01  -2.5248795956693060e-01  -2.9303087182793963e-01  -3.2110939956397883e-01  -3.3789667947841889e-01  -3.4453171987822045e-01  -3.4139723980443493e-01  -3.2824506058936076e-01  -3.0418078303557444e-01  -2.6810404107786029e-01  -2.1945781247825719e-01  -1.5962143054408104e-01  -9.3390491923067892e-02  -2.9869045828574976e-02  1.5589564003383986e-02  3.3309121461176823e-02  3.4561311453694350e-02  2.6950748775658680e-02  1.5577216476073356e-02  7.6201885305184616e-03  2.6120761781345267e-03  4.9056507215177315e-04  -1.0691309324189352e-04  -8.1387715083216302e-04  3.8184891455958713e-03  1.0265188962378031e-02  9.8205304813353388e-03  5.0166902267202353e-03  -8.6874208157136819e-03  -5.1359898793518433e-02  -1.2114984719780462e-01  -1.9631409515375467e-01  -2.6297001156395655e-01  -3.1523277086335544e-01  -3.5322145980642961e-01  -3.7917935543724501e-01  -3.9566968889433352e-01  -4.0506753027329090e-01  -4.0914029259604423e-01  -4.0898693783622059e-01  -4.0479199332768068e-01  -3.9546115584708996e-01  -3.7832406184535444e-01  -3.4909420825539933e-01  -3.0282065268790431e-01  -2.3675836922096233e-01  -1.5484601091688963e-01  -7.0926886359837363e-02  -9.0106454205291890e-03  1.4743188787517875e-02  2.0199950803413698e-02  1.9054608987876663e-02  1.1538537749816150e-02  5.8986343530746266e-03  1.4505275179059229e-03  -2.6381969722220016e-04  -1.0815825483911265e-03  5.9288124148087823e-03  9.7611425297572853e-03  3.0073855344898326e-03  -1.7521998529405506e-02  -6.8871397614620314e-02  -1.4567786740509847e-01  -2.2399667700115050e-01  -2.8877307039903577e-01  -3.3521153938893583e-01  -3.6483721505973848e-01  -3.8181424908231426e-01  -3.9050819044557700e-01  -3.9456209080827914e-01  -3.9651257578837590e-01  -3.9791478582238649e-01  -3.9958839188908424e-01  -4.0190119720492273e-01  -4.0468064444155111e-01  -4.0653933962195893e-01  -4.0376477469962113e-01  -3.8935845010564230e-01  -3.5383167306177704e-01  -2.8934885426652762e-01  -1.9732280359780982e-01  -9.4852194762885103e-02  -1.6261967314698731e-02  9.8349476604767533e-03  1.2918913424890236e-02  1.3617253806764755e-02  6.9002662750631159e-03  2.2372269727135869e-03  -3.3990668157203807e-04  -2.1964674772002139e-04  6.6200307844809098e-03  3.7121259634267699e-03  -1.9266492762427881e-02  -7.0693025706191348e-02  -1.4762441674323590e-01  -2.2567709741745212e-01  -2.8703546237818278e-01  -3.2688373844040314e-01  -3.4790069810759833e-01  -3.5626592639243593e-01  -3.5818377025653569e-01  -3.5805500775974042e-01  -3.5800828077039482e-01  -3.5860088344335783e-01  -3.5977804146707593e-01  -3.6144721909057059e-01  -3.6373338538090072e-01  -3.6720932169356663e-01  -3.7264704928599335e-01  -3.8019810154378858e-01  -3.8765414209577076e-01  -3.8791974514757099e-01  -3.6822236093261490e-01  -3.1433470521572560e-01  -2.2165874831540752e-01  -1.0681134379949801e-01  -1.6065869480775648e-02  8.9565497389111869e-03  7.0494845476123686e-03  8.6243290506610622e-03  2.6870624599291968e-03  -4.9730762184992496e-04  1.1380636618567920e-03  3.8432408587964601e-03  -1.4409843260885591e-02  -6.0874759791266497e-02  -1.3218542183211490e-01  -2.0848498352237876e-01  -2.6784065989718936e-01  -3.0369803042262694e-01  -3.1951426539827416e-01  -3.2338610730857786e-01  -3.2327611194538797e-01  -3.2372543701383888e-01  -3.2580417953874508e-01  -3.2882026688311489e-01  -3.3192575990105561e-01  -3.3464773839050760e-01  -3.3690364072539403e-01  -3.3881833258199257e-01  -3.4047225556633087e-01  -3.4211644331833591e-01  -3.4458164101432753e-01  -3.4941580183102344e-01  -3.5749373651311311e-01  -3.6467614072656068e-01  -3.5731989985737395e-01  -3.1463526037362927e-01  -2.2453691246109975e-01  -1.0091856853207457e-01  -9.1720045615010220e-03  1.0025478846032942e-02  2.8690668754755518e-03  1.0656183967096098e-03  -5.8927745470429229e-05  2.6285596185903594e-03  -5.9792363565303701e-03  -4.3468190822051674e-02  -1.0544430898526290e-01  -1.7765586100230352e-01  -2.3729831097877996e-01  -2.7287821587687422e-01  -2.8732355983598068e-01  -2.8986478146404332e-01  -2.8986873921367301e-01  -2.9179364760047188e-01  -2.9547149347930646e-01  -2.9939251160718000e-01  -3.0272565063039375e-01  -3.0549273921603298e-01  -3.0802128217358771e-01  -3.1059784815750768e-01  -3.1333091092740772e-01  -3.1616580532830246e-01  -3.1877317938157484e-01  -3.2059495256501902e-01  -3.2138564414254334e-01  -3.2247435831632054e-01  -3.2705880144136262e-01  -3.3519278123028795e-01  -3.3437983993889092e-01  -2.9786862706048456e-01  -2.0772906221727336e-01  -7.5272049180620859e-02  -1.0289705914693842e-03  6.6092286061986459e-03  6.1826807233173369e-03  -1.5665267809705985e-03  3.1123650853824968e-03  -2.0554286963213760e-02  -7.2011348804317810e-02  -1.3711441578939562e-01  -1.9764404562027038e-01  -2.3672543568544463e-01  -2.5324090494055412e-01  -2.5650116723476168e-01  -2.5691187330337645e-01  -2.5962132682554179e-01  -2.6379017885276240e-01  -2.6750890552538215e-01  -2.7027443657579769e-01  -2.7255743203844440e-01  -2.7481997237335981e-01  -2.7725135922750277e-01  -2.7989633429692906e-01  -2.8278584429821568e-01  -2.8598679620231005e-01  -2.8954086823353692e-01  -2.9324036299176448e-01  -2.9630506368087023e-01  -2.9750276317757196e-01  -2.9690759571058689e-01  -2.9842470246374009e-01  -3.0550061856013550e-01  -3.0654430766576857e-01  -2.6893956587764806e-01  -1.7234640034507590e-01  -3.5402405419541642e-02  8.8104659275895884e-03  -9.7087580004562891e-03  2.7985804195942059e-03  3.1306779932788647e-03  -3.3064539209191120e-02  -9.0555394848380530e-02  -1.4960010210385080e-01  -1.9454276549541999e-01  -2.1670847230724755e-01  -2.2272860317860785e-01  -2.2374796445136588e-01  -2.2656458382018110e-01  -2.3092461761378413e-01  -2.3453848868903948e-01  -2.3712725865074985e-01  -2.3944172858656024e-01  -2.4194008989015328e-01  -2.4461745256173331e-01  -2.4738118444765383e-01  -2.5018973216422052e-01  -2.5305367957162667e-01  -2.5599463033183617e-01  -2.5907085072414404e-01  -2.6242451326429389e-01  -2.6616261798201857e-01  -2.6979598264595311e-01  -2.7166569963312198e-01  -2.7062488180951561e-01  -2.7058374013573477e-01  -2.7704958027608839e-01  -2.7594685769924421e-01  -2.2932942314690219e-01  -1.1510992977608185e-01  -8.0049800866824374e-03  1.6348640162948638e-02  -7.7632253836378831e-04  2.8894185427403960e-03  -3.9475729474207577e-02  -9.5924272678676328e-02  -1.4473215821491109e-01  -1.7570380308446931e-01  -1.8740850205166665e-01  -1.9009236639061416e-01  -1.9273727372892802e-01  -1.9718892803059357e-01  -2.0112766246557698e-01  -2.0389020413225170e-01  -2.0642954032015304e-01  -2.0919829794873196e-01  -2.1209245003453914e-01  -2.1497576420675352e-01  -2.1785695597059473e-01  -2.2077718274114330e-01  -2.2376719640623000e-01  -2.2681517613957619e-01  -2.2986744435265369e-01  -2.3286393180700399e-01  -2.3588649678848006e-01  -2.3923598821711820e-01  -2.4278845999189028e-01  -2.4472469387219320e-01  -2.4319468002050978e-01  -2.4278915831688261e-01  -2.4947956602172086e-01  -2.4099680507561724e-01  -1.7603306305409541e-01  -3.8042077057707936e-02  1.2948253794834400e-02  -1.1097722587287171e-02  2.6984722325764676e-03  -3.9273934358857267e-02  -8.9801520945375871e-02  -1.2780120607477816e-01  -1.4874965883084384e-01  -1.5549418307995264e-01  -1.5851619347280083e-01  -1.6279512227653514e-01  -1.6732189115158611e-01  -1.7056698136081180e-01  -1.7331405041308409e-01  -1.7624696554463354e-01  -1.7923464482079787e-01  -1.8213463767270746e-01  -1.8499351469884426e-01  -1.8789217768669300e-01  -1.9087116184740119e-01  -1.9394510962930714e-01  -1.9711225070478838e-01  -2.0035037498739408e-01  -2.0357713925130436e-01  -2.0664482900012054e-01  -2.0952968801665178e-01  -2.1263222004349869e-01  -2.1600022776370997e-01  -2.1741362659989635e-01  -2.1492581208913764e-01  -2.1562039474559908e-01  -2.2089465019527996e-01  -1.9709961242768589e-01  -9.7083113296365126e-02  -1.8719773742652497e-02  -2.6650330179241949e-03  2.5252764822927660e-03  -3.3685737264072479e-02  -7.5840724225927247e-02  -1.0436944695200503e-01  -1.1884880890854617e-01  -1.2401090742387512e-01  -1.2811383001453469e-01  -1.3295953731586593e-01  -1.3701318626777986e-01  -1.4006835786741659e-01  -1.4309885522326871e-01  -1.4618393201311172e-01  -1.4913217737505555e-01  -1.5200703826345741e-01  -1.5491180358717202e-01  -1.5788771710608146e-01  -1.6094564235454420e-01  -1.6409337007694941e-01  -1.6733060821877568e-01  -1.7064863335208127e-01  -1.7402779922304912e-01  -1.7739082294062553e-01  -1.8053078263653533e-01  -1.8334428506901607e-01  -1.8636800249893248e-01  -1.8954016831449622e-01  -1.8965648806373936e-01  -1.8639810921854216e-01  -1.8973304864771390e-01  -1.8815803752322199e-01  -1.3000425591342699e-01  -1.6149347443442585e-03  2.3972608445090488e-02  2.5572525241938353e-03  -2.4712105716990753e-02  -5.7572368287000186e-02  -7.8229440040084489e-02  -8.8906868703637884e-02  -9.3735468978757661e-02  -9.8477785384011460e-02  -1.0318949962588865e-01  -1.0687330662112444e-01  -1.0998302949605257e-01  -1.1312291247935345e-01  -1.1613172270370137e-01  -1.1900567771361954e-01  -1.2187784710802377e-01  -1.2480972319580215e-01  -1.2782149789257541e-01  -1.3093518328397460e-01  -1.3416528956616136e-01  -1.3751080261926182e-01  -1.4095389484884602e-01  -1.4446722776325671e-01  -1.4802672945944012e-01  -1.5156269814408679e-01  -1.5480843583265050e-01  -1.5763892514114103e-01  -1.6079776982292240e-01  -1.6348820119827134e-01  -1.6124495950349832e-01  -1.5942019246756370e-01  -1.6283732154157116e-01  -1.3785508952777389e-01  -1.6214238679809735e-02  2.7807286834518604e-02  2.5424248172058006e-03  -1.3797064304770734e-02  -3.7361782994499527e-02  -5.1758522613004329e-02  -5.9820238676071752e-02  -6.4590197587959072e-02  -6.9319827429984840e-02  -7.3585402246741816e-02  -7.6998369922307672e-02  -8.0103322935141080e-02  -8.3152703218055665e-02  -8.6031115009612524e-02  -8.8845028084309122e-02  -9.1696853702985179e-02  -9.4618679513398779e-02  -9.7639806654949715e-02  -1.0079517943931990e-01  -1.0410705522162454e-01  -1.0757996841306475e-01  -1.1119970827189574e-01  -1.1493349012140323e-01  -1.1873394946082334e-01  -1.2256120679890495e-01  -1.2633361738504453e-01  -1.2972623127103899e-01  -1.3277190478299053e-01  -1.3635433501614327e-01  -1.3747011864189557e-01  -1.3377720253363135e-01  -1.3733714462328062e-01  -1.3269744799770572e-01  -5.2604257829023643e-02  1.4173132159028856e-02  2.6972214490652660e-03  -2.1235818081083630e-03  -1.6666329332419811e-02  -2.5662305288674966e-02  -3.1898389403927287e-02  -3.6356537606666621e-02  -4.0644321451181534e-02  -4.4411215773014268e-02  -4.7585559884987444e-02  -5.0539058496336914e-02  -5.3372585633796057e-02  -5.6072644964282062e-02  -5.8759111858332568e-02  -6.1498595641089566e-02  -6.4332490157966077e-02  -6.7313578310104288e-02  -7.0489743134218352e-02  -7.3877702024413752e-02  -7.7483856587938729e-02  -8.1304053324177256e-02  -8.5310140909986745e-02  -8.9459585121393237e-02  -9.3695202988085952e-02  -9.7946458871143866e-02  -1.0207373186237080e-01  -1.0571348682332883e-01  -1.0947635419164485e-01  -1.1320657413285343e-01  -1.1155697343806670e-01  -1.1235591551179624e-01  -1.2248101857648348e-01  -8.2523124193915692e-02  2.2982073971759926e-03  2.3762635203771936e-03  9.6082827553274318e-03  4.1375784610546903e-03  -5.0046273290570717e-04  -4.6968855355751784e-03  -8.7460203205436370e-03  -1.2327436035897334e-02  -1.5485526158567098e-02  -1.8294770473962350e-02  -2.0957629407876103e-02  -2.3500778074241148e-02  -2.5982982352029425e-02  -2.8491901109063959e-02  -3.1089015294476479e-02  -3.3833161839353254e-02  -3.6786591235612211e-02  -3.9979500214313651e-02  -4.3433262766545182e-02  -4.7178093277385300e-02  -5.1217893161835920e-02  -5.5536364576876961e-02  -6.0082539874793318e-02  -6.4816700290941262e-02  -6.9656427657632691e-02  -7.4535710813434686e-02  -7.9147270283182330e-02  -8.3446519196703026e-02  -8.8496880331068867e-02  -9.0537677636580369e-02  -8.9776521654476971e-02  -1.0278411453665187e-01  -8.5487444665761150e-02  -3.1958319681333227e-03  1.9801741797243083e-03  2.0684048482719656e-02  2.4445239889776781e-02  2.4187129227201790e-02  2.1864193062359271e-02  1.8341788161683359e-02  1.5560892751639119e-02  1.3001563786918972e-02  1.0566586073344016e-02  8.2583033994277945e-03  6.0749572854840858e-03  3.8973379724288769e-03  1.6611572098812338e-03  -6.9772138332890616e-04  -3.2572586265635739e-03  -6.0739010127558645e-03  -9.1908894088428492e-03  -1.2684581525079173e-02  -1.6578033940279579e-02  -2.0849469814864321e-02  -2.5515376367529059e-02  -3.0526299139339429e-02  -3.5845138065993168e-02  -4.1383273241252627e-02  -4.7072170282351382e-02  -5.2758925612015707e-02  -5.8115411719669899e-02  -6.3844878329142887e-02  -6.9036889332279666e-02  -6.7897177454314117e-02  -7.9852288578886627e-02  -7.4604001089390290e-02  -4.6660259387915522e-03  9.7742213923298748e-04  3.0377608876485770e-02  4.4010133805552652e-02  4.8011758271552969e-02  4.8265093924460732e-02  4.5356910275233087e-02  4.3264844359455927e-02  4.1510219981576127e-02  3.9620704866703042e-02  3.7752750344494698e-02  3.5996201275906671e-02  3.4180466750673433e-02  3.2253852386256311e-02  3.0155747207794670e-02  2.7795464156668139e-02  2.5102387037380713e-02  2.1996674774402144e-02  1.8435653610447782e-02  1.4418988821439438e-02  9.9027810218936044e-03  4.8607063598815267e-03  -6.5437455228088747e-04  -6.6281637765718869e-03  -1.2970234101112827e-02  -1.9617878203258131e-02  -2.6386562728861179e-02  -3.3179945717481563e-02  -3.9683704939893753e-02  -4.7223139029851785e-02  -4.7836894294404769e-02  -5.6954170030385241e-02  -5.9123350068705921e-02  -5.4156255617531929e-03  -4.9909314606345206e-04  3.6546987522083428e-02  6.1727922045768595e-02  7.1360325994143450e-02  7.4237294603545861e-02  7.2282586451890382e-02  7.0630978956834636e-02  6.9526815832438610e-02  6.8136554360080384e-02  6.6686749288271036e-02  6.5389595993382787e-02  6.4052667239903827e-02  6.2557454893628989e-02  6.0857945357821915e-02  5.8838777018346555e-02  5.6413194713642471e-02  5.3488483245783279e-02  5.0032941181137484e-02  4.5950036186923671e-02  4.1161706446269049e-02  3.5731387574144353e-02  2.9664748385365480e-02  2.2960115163510805e-02  1.5733134290806926e-02  8.0010827624744426e-03  1.8459478803387042e-05  -8.3598907162328838e-03  -1.6142766166364210e-02  -2.5414499323547175e-02  -2.8713458287418427e-02  -3.7669348884734617e-02  -4.5178141523029583e-02  -5.4809080765857660e-03  -3.4756172997897064e-03  3.7176990694344408e-02  7.6422271444789289e-02  9.3190215043598590e-02  1.0022437128073224e-01  9.9675879990201818e-02  9.8231678177819456e-02  9.7858743381149846e-02  9.7288898978848445e-02  9.6394562585106522e-02  9.5599458556388794e-02  9.4800317111583807e-02  9.3794683363511502e-02  9.2502927615203540e-02  9.0832106962330739e-02  8.8654937674373047e-02  8.5871704429242621e-02  8.2381888740221926e-02  7.8090637012787970e-02  7.3071313336148636e-02  6.7267512804440002e-02  6.0597530206324947e-02  5.3111317440605876e-02  4.4903801720165989e-02  3.5975110364168381e-02  2.6593274239385997e-02  1.6513639131586141e-02  6.9081239276763762e-03  -4.0986078770492299e-03  -1.1022938744150291e-02  -2.1123930048728284e-02  -3.3611776973937461e-02  -5.8653837111832773e-03  -7.3048265474138091e-03  3.0092842748438570e-02  8.6114749524201381e-02  1.1352115488007733e-01  1.2523235181293144e-01  1.2702658494886335e-01  1.2564484647330421e-01  1.2524992696607590e-01  1.2528598568143465e-01  1.2498751269850426e-01  1.2469967348409283e-01  1.2453927732331414e-01  1.2423981753385505e-01  1.2360140177713826e-01  1.2249582387689581e-01  1.2079869503051381e-01  1.1837371211543479e-01  1.1512066064921751e-01  1.1099694484689300e-01  1.0588489134496977e-01  9.9621098954472173e-02  9.2324552182597400e-02  8.4024437666767912e-02  7.4749935178183388e-02  6.4530730513027421e-02  5.3534640938304255e-02  4.1626943361769475e-02  2.9739651751689501e-02  1.6823361940874249e-02  6.0464132812336324e-03  -7.4761807248244112e-03  -2.4799643945119701e-02  -6.0393802490740032e-03  -1.1072928724466040e-02  1.9213135939684396e-02  8.9481681698006965e-02  1.2974392426797585e-01  1.4937429833164137e-01  1.5468762862333912e-01  1.5405642544812873e-01  1.5364479277618351e-01  1.5444807432013355e-01  1.5517105624229577e-01  1.5562944110854154e-01  1.5610969867102104e-01  1.5652518574945795e-01  1.5658245744246602e-01  1.5606051933092679e-01  1.5479832247954090e-01  1.5265537726718720e-01  1.4950578528913688e-01  1.4518972372047487e-01  1.3964848474141581e-01  1.3295485168983592e-01  1.2511234048535894e-01  1.1592873815430436e-01  1.0552810961654091e-01  9.3912460843934870e-02  8.1124864009425438e-02  6.7175867866190994e-02  5.2822064877745101e-02  3.7526914869670580e-02  2.2456712211990762e-02  4.7336393718219530e-03  -1.8031786463731495e-02  -6.4694026387178893e-03  -9.3468720629277975e-03  1.0329134817150603e-02  8.2929769669563613e-02  1.3990582237484664e-01  1.6905783833155918e-01  1.8041385660280324e-01  1.8158230543102091e-01  1.8040804273020886e-01  1.8084873835015547e-01  1.8241357992054136e-01  1.8398634443696832e-01  1.8543476063823042e-01  1.8680002230361747e-01  1.8787546541117886e-01  1.8833821007622281e-01  1.8793177227624352e-01  1.8646106561940831e-01  1.8378182908575952e-01  1.7982539092126182e-01  1.7452794100327618e-01  1.6768604684740332e-01  1.5917619346135170e-01  1.4906267296136771e-01  1.3755450537799754e-01  1.2438183801782812e-01  1.0963931461299302e-01  9.3545387116368686e-02  7.6567325852848603e-02  5.8491713706458975e-02  3.9042032735539037e-02  1.5410644606476627e-02  -1.3179885479150803e-02  -6.6596440976820163e-03  -1.1479299203040697e-03  9.7914609277350798e-03  6.3399343460241772e-02  1.3711022743363821e-01  1.8267410248370400e-01  2.0339860038860538e-01  2.0962959926895386e-01  2.0998611016617677e-01  2.1041968813322981e-01  2.1266975294313917e-01  2.1574785021969234e-01  2.1868226029172605e-01  2.2120389845218033e-01  2.2320165169596456e-01  2.2446327179489428e-01  2.2471810014289836e-01  2.2372