<?xml version="1.0"?>
<VTKFile type="UnstructuredGrid"  version="0.1"  >
<UnstructuredGrid>
<Piece  NumberOfPoints="1089" NumberOfCells="1024">
<Points>
<DataArray  type="Float64"  NumberOfComponents="3"  format="ascii">0 0 0  0.03125 0 0  0.0625 0 0  0.09375 0 0  0.125 0 0  0.15625 0 0  0.1875 0 0  0.21875 0 0  0.25 0 0  0.28125 0 0  0.3125 0 0  0.34375 0 0  0.375 0 0  0.40625 0 0  0.4375 0 0  0.46875 0 0  0.5 0 0  0.53125 0 0  0.5625 0 0  0.59375 0 0  0.625 0 0  0.65625 0 0  0.6875 0 0  0.71875 0 0  0.75 0 0  0.78125 0 0  0.8125 0 0  0.84375 0 0  0.875 0 0  0.90625 0 0  0.9375 0 0  0.96875 0 0  1 0 0  0 0.03125 0  0.03125 0.03125 0  0.0625 0.03125 0  0.09375 0.03125 0  0.125 0.03125 0  0.15625 0.03125 0  0.1875 0.03125 0  0.21875 0.03125 0  0.25 0.03125 0  0.28125 0.03125 0  0.3125 0.03125 0  0.34375 0.03125 0  0.375 0.03125 0  0.40625 0.03125 0  0.4375 0.03125 0  0.46875 0.03125 0  0.5 0.03125 0  0.53125 0.03125 0  0.5625 0.03125 0  0.59375 0.03125 0  0.625 0.03125 0  0.65625 0.03125 0  0.6875 0.03125 0  0.71875 0.03125 0  0.75 0.03125 0  0.78125 0.03125 0  0.8125 0.03125 0  0.84375 0.03125 0  0.875 0.03125 0  0.90625 0.03125 0  0.9375 0.03125 0  0.96875 0.03125 0  1 0.03125 0  0 0.0625 0  0.03125 0.0625 0  0.0625 0.0625 0  0.09375 0.0625 0  0.125 0.0625 0  0.15625 0.0625 0  0.1875 0.0625 0  0.21875 0.0625 0  0.25 0.0625 0  0.28125 0.0625 0  0.3125 0.0625 0  0.34375 0.0625 0  0.375 0.0625 0  0.40625 0.0625 0  0.4375 0.0625 0  0.46875 0.0625 0  0.5 0.0625 0  0.53125 0.0625 0  0.5625 0.0625 0  0.59375 0.0625 0  0.625 0.0625 0  0.65625 0.0625 0  0.6875 0.0625 0  0.71875 0.0625 0  0.75 0.0625 0  0.78125 0.0625 0  0.8125 0.0625 0  0.84375 0.0625 0  0.875 0.0625 0  0.90625 0.0625 0  0.9375 0.0625 0  0.96875 0.0625 0  1 0.0625 0  0 0.09375 0  0.03125 0.09375 0  0.0625 0.09375 0  0.09375 0.09375 0  0.125 0.09375 0  0.15625 0.09375 0  0.1875 0.09375 0  0.21875 0.09375 0  0.25 0.09375 0  0.28125 0.09375 0  0.3125 0.09375 0  0.34375 0.09375 0  0.375 0.09375 0  0.40625 0.09375 0  0.4375 0.09375 0  0.46875 0.09375 0  0.5 0.09375 0  0.53125 0.09375 0  0.5625 0.09375 0  0.59375 0.09375 0  0.625 0.09375 0  0.65625 0.09375 0  0.6875 0.09375 0  0.71875 0.09375 0  0.75 0.09375 0  0.78125 0.09375 0  0.8125 0.09375 0  0.84375 0.09375 0  0.875 0.09375 0  0.90625 0.09375 0  0.9375 0.09375 0  0.96875 0.09375 0  1 0.09375 0  0 0.125 0  0.03125 0.125 0  0.0625 0.125 0  0.09375 0.125 0  0.125 0.125 0  0.15625 0.125 0  0.1875 0.125 0  0.21875 0.125 0  0.25 0.125 0  0.28125 0.125 0  0.3125 0.125 0  0.34375 0.125 0  0.375 0.125 0  0.40625 0.125 0  0.4375 0.125 0  0.46875 0.125 0  0.5 0.125 0  0.53125 0.125 0  0.5625 0.125 0  0.59375 0.125 0  0.625 0.125 0  0.65625 0.125 0  0.6875 0.125 0  0.71875 0.125 0  0.75 0.125 0  0.78125 0.125 0  0.8125 0.125 0  0.84375 0.125 0  0.875 0.125 0  0.90625 0.125 0  0.9375 0.125 0  0.96875 0.125 0  1 0.125 0  0 0.15625 0  0.03125 0.15625 0  0.0625 0.15625 0  0.09375 0.15625 0  0.125 0.15625 0  0.15625 0.15625 0  0.1875 0.15625 0  0.21875 0.15625 0  0.25 0.15625 0  0.28125 0.15625 0  0.3125 0.15625 0  0.34375 0.15625 0  0.375 0.15625 0  0.40625 0.15625 0  0.4375 0.15625 0  0.46875 0.15625 0  0.5 0.15625 0  0.53125 0.15625 0  0.5625 0.15625 0  0.59375 0.15625 0  0.625 0.15625 0  0.65625 0.15625 0  0.6875 0.15625 0  0.71875 0.15625 0  0.75 0.15625 0  0.78125 0.15625 0  0.8125 0.15625 0  0.84375 0.15625 0  0.875 0.15625 0  0.90625 0.15625 0  0.9375 0.15625 0  0.96875 0.15625 0  1 0.15625 0  0 0.1875 0  0.03125 0.1875 0  0.0625 0.1875 0  0.09375 0.1875 0  0.125 0.1875 0  0.15625 0.1875 0  0.1875 0.1875 0  0.21875 0.1875 0  0.25 0.1875 0  0.28125 0.1875 0  0.3125 0.1875 0  0.34375 0.1875 0  0.375 0.1875 0  0.40625 0.1875 0  0.4375 0.1875 0  0.46875 0.1875 0  0.5 0.1875 0  0.53125 0.1875 0  0.5625 0.1875 0  0.59375 0.1875 0  0.625 0.1875 0  0.65625 0.1875 0  0.6875 0.1875 0  0.71875 0.1875 0  0.75 0.1875 0  0.78125 0.1875 0  0.8125 0.1875 0  0.84375 0.1875 0  0.875 0.1875 0  0.90625 0.1875 0  0.9375 0.1875 0  0.96875 0.1875 0  1 0.1875 0  0 0.21875 0  0.03125 0.21875 0  0.0625 0.21875 0  0.09375 0.21875 0  0.125 0.21875 0  0.15625 0.21875 0  0.1875 0.21875 0  0.21875 0.21875 0  0.25 0.21875 0  0.28125 0.21875 0  0.3125 0.21875 0  0.34375 0.21875 0  0.375 0.21875 0  0.40625 0.21875 0  0.4375 0.21875 0  0.46875 0.21875 0  0.5 0.21875 0  0.53125 0.21875 0  0.5625 0.21875 0  0.59375 0.21875 0  0.625 0.21875 0  0.65625 0.21875 0  0.6875 0.21875 0  0.71875 0.21875 0  0.75 0.21875 0  0.78125 0.21875 0  0.8125 0.21875 0  0.84375 0.21875 0  0.875 0.21875 0  0.90625 0.21875 0  0.9375 0.21875 0  0.96875 0.21875 0  1 0.21875 0  0 0.25 0  0.03125 0.25 0  0.0625 0.25 0  0.09375 0.25 0  0.125 0.25 0  0.15625 0.25 0  0.1875 0.25 0  0.21875 0.25 0  0.25 0.25 0  0.28125 0.25 0  0.3125 0.25 0  0.34375 0.25 0  0.375 0.25 0  0.40625 0.25 0  0.4375 0.25 0  0.46875 0.25 0  0.5 0.25 0  0.53125 0.25 0  0.5625 0.25 0  0.59375 0.25 0  0.625 0.25 0  0.65625 0.25 0  0.6875 0.25 0  0.71875 0.25 0  0.75 0.25 0  0.78125 0.25 0  0.8125 0.25 0  0.84375 0.25 0  0.875 0.25 0  0.90625 0.25 0  0.9375 0.25 0  0.96875 0.25 0  1 0.25 0  0 0.28125 0  0.03125 0.28125 0  0.0625 0.28125 0  0.09375 0.28125 0  0.125 0.28125 0  0.15625 0.28125 0  0.1875 0.28125 0  0.21875 0.28125 0  0.25 0.28125 0  0.28125 0.28125 0  0.3125 0.28125 0  0.34375 0.28125 0  0.375 0.28125 0  0.40625 0.28125 0  0.4375 0.28125 0  0.46875 0.28125 0  0.5 0.28125 0  0.53125 0.28125 0  0.5625 0.28125 0  0.59375 0.28125 0  0.625 0.28125 0  0.65625 0.28125 0  0.6875 0.28125 0  0.71875 0.28125 0  0.75 0.28125 0  0.78125 0.28125 0  0.8125 0.28125 0  0.84375 0.28125 0  0.875 0.28125 0  0.90625 0.28125 0  0.9375 0.28125 0  0.96875 0.28125 0  1 0.28125 0  0 0.3125 0  0.03125 0.3125 0  0.0625 0.3125 0  0.09375 0.3125 0  0.125 0.3125 0  0.15625 0.3125 0  0.1875 0.3125 0  0.21875 0.3125 0  0.25 0.3125 0  0.28125 0.3125 0  0.3125 0.3125 0  0.34375 0.3125 0  0.375 0.3125 0  0.40625 0.3125 0  0.4375 0.3125 0  0.46875 0.3125 0  0.5 0.3125 0  0.53125 0.3125 0  0.5625 0.3125 0  0.59375 0.3125 0  0.625 0.3125 0  0.65625 0.3125 0  0.6875 0.3125 0  0.71875 0.3125 0  0.75 0.3125 0  0.78125 0.3125 0  0.8125 0.3125 0  0.84375 0.3125 0  0.875 0.3125 0  0.90625 0.3125 0  0.9375 0.3125 0  0.96875 0.3125 0  1 0.3125 0  0 0.34375 0  0.03125 0.34375 0  0.0625 0.34375 0  0.09375 0.34375 0  0.125 0.34375 0  0.15625 0.34375 0  0.1875 0.34375 0  0.21875 0.34375 0  0.25 0.34375 0  0.28125 0.34375 0  0.3125 0.34375 0  0.34375 0.34375 0  0.375 0.34375 0  0.40625 0.34375 0  0.4375 0.34375 0  0.46875 0.34375 0  0.5 0.34375 0  0.53125 0.34375 0  0.5625 0.34375 0  0.59375 0.34375 0  0.625 0.34375 0  0.65625 0.34375 0  0.6875 0.34375 0  0.71875 0.34375 0  0.75 0.34375 0  0.78125 0.34375 0  0.8125 0.34375 0  0.84375 0.34375 0  0.875 0.34375 0  0.90625 0.34375 0  0.9375 0.34375 0  0.96875 0.34375 0  1 0.34375 0  0 0.375 0  0.03125 0.375 0  0.0625 0.375 0  0.09375 0.375 0  0.125 0.375 0  0.15625 0.375 0  0.1875 0.375 0  0.21875 0.375 0  0.25 0.375 0  0.28125 0.375 0  0.3125 0.375 0  0.34375 0.375 0  0.375 0.375 0  0.40625 0.375 0  0.4375 0.375 0  0.46875 0.375 0  0.5 0.375 0  0.53125 0.375 0  0.5625 0.375 0  0.59375 0.375 0  0.625 0.375 0  0.65625 0.375 0  0.6875 0.375 0  0.71875 0.375 0  0.75 0.375 0  0.78125 0.375 0  0.8125 0.375 0  0.84375 0.375 0  0.875 0.375 0  0.90625 0.375 0  0.9375 0.375 0  0.96875 0.375 0  1 0.375 0  0 0.40625 0  0.03125 0.40625 0  0.0625 0.40625 0  0.09375 0.40625 0  0.125 0.40625 0  0.15625 0.40625 0  0.1875 0.40625 0  0.21875 0.40625 0  0.25 0.40625 0  0.28125 0.40625 0  0.3125 0.40625 0  0.34375 0.40625 0  0.375 0.40625 0  0.40625 0.40625 0  0.4375 0.40625 0  0.46875 0.40625 0  0.5 0.40625 0  0.53125 0.40625 0  0.5625 0.40625 0  0.59375 0.40625 0  0.625 0.40625 0  0.65625 0.40625 0  0.6875 0.40625 0  0.71875 0.40625 0  0.75 0.40625 0  0.78125 0.40625 0  0.8125 0.40625 0  0.84375 0.40625 0  0.875 0.40625 0  0.90625 0.40625 0  0.9375 0.40625 0  0.96875 0.40625 0  1 0.40625 0  0 0.4375 0  0.03125 0.4375 0  0.0625 0.4375 0  0.09375 0.4375 0  0.125 0.4375 0  0.15625 0.4375 0  0.1875 0.4375 0  0.21875 0.4375 0  0.25 0.4375 0  0.28125 0.4375 0  0.3125 0.4375 0  0.34375 0.4375 0  0.375 0.4375 0  0.40625 0.4375 0  0.4375 0.4375 0  0.46875 0.4375 0  0.5 0.4375 0  0.53125 0.4375 0  0.5625 0.4375 0  0.59375 0.4375 0  0.625 0.4375 0  0.65625 0.4375 0  0.6875 0.4375 0  0.71875 0.4375 0  0.75 0.4375 0  0.78125 0.4375 0  0.8125 0.4375 0  0.84375 0.4375 0  0.875 0.4375 0  0.90625 0.4375 0  0.9375 0.4375 0  0.96875 0.4375 0  1 0.4375 0  0 0.46875 0  0.03125 0.46875 0  0.0625 0.46875 0  0.09375 0.46875 0  0.125 0.46875 0  0.15625 0.46875 0  0.1875 0.46875 0  0.21875 0.46875 0  0.25 0.46875 0  0.28125 0.46875 0  0.3125 0.46875 0  0.34375 0.46875 0  0.375 0.46875 0  0.40625 0.46875 0  0.4375 0.46875 0  0.46875 0.46875 0  0.5 0.46875 0  0.53125 0.46875 0  0.5625 0.46875 0  0.59375 0.46875 0  0.625 0.46875 0  0.65625 0.46875 0  0.6875 0.46875 0  0.71875 0.46875 0  0.75 0.46875 0  0.78125 0.46875 0  0.8125 0.46875 0  0.84375 0.46875 0  0.875 0.46875 0  0.90625 0.46875 0  0.9375 0.46875 0  0.96875 0.46875 0  1 0.46875 0  0 0.5 0  0.03125 0.5 0  0.0625 0.5 0  0.09375 0.5 0  0.125 0.5 0  0.15625 0.5 0  0.1875 0.5 0  0.21875 0.5 0  0.25 0.5 0  0.28125 0.5 0  0.3125 0.5 0  0.34375 0.5 0  0.375 0.5 0  0.40625 0.5 0  0.4375 0.5 0  0.46875 0.5 0  0.5 0.5 0  0.53125 0.5 0  0.5625 0.5 0  0.59375 0.5 0  0.625 0.5 0  0.65625 0.5 0  0.6875 0.5 0  0.71875 0.5 0  0.75 0.5 0  0.78125 0.5 0  0.8125 0.5 0  0.84375 0.5 0  0.875 0.5 0  0.90625 0.5 0  0.9375 0.5 0  0.96875 0.5 0  1 0.5 0  0 0.53125 0  0.03125 0.53125 0  0.0625 0.53125 0  0.09375 0.53125 0  0.125 0.53125 0  0.15625 0.53125 0  0.1875 0.53125 0  0.21875 0.53125 0  0.25 0.53125 0  0.28125 0.53125 0  0.3125 0.53125 0  0.34375 0.53125 0  0.375 0.53125 0  0.40625 0.53125 0  0.4375 0.53125 0  0.46875 0.53125 0  0.5 0.53125 0  0.53125 0.53125 0  0.5625 0.53125 0  0.59375 0.53125 0  0.625 0.53125 0  0.65625 0.53125 0  0.6875 0.53125 0  0.71875 0.53125 0  0.75 0.53125 0  0.78125 0.531
[...]
<PointData  Scalars="v_sol"> 
<DataArray  type="Float64"  Name="v_sol"  format="ascii">2.1936570108860821e-05  2.0120193465210606e-04  3.2208142983875128e-04  2.3763433660171972e-04  1.6561951878749941e-04  1.3742910016658461e-04  -3.9263675197628801e-04  5.5431901905514055e-04  1.0228198420459953e-03  -2.3825426093329349e-03  -6.0413398857715071e-03  -5.5858541836898154e-03  -3.2932704515016872e-03  -1.2524662227187578e-03  1.3577997103978606e-04  8.9914382890970567e-04  1.3464319004797499e-03  1.6390513317327887e-03  1.9693979938745733e-03  2.4268126051480545e-03  3.0595520476907312e-03  3.8006440802408458e-03  4.4628443241882271e-03  3.0342549951106463e-03  6.6763315670300934e-04  -1.7348273680553876e-03  -3.2728465817588341e-03  -1.2980426220019854e-03  -6.4658899571433685e-04  -1.6308593423323487e-04  -7.1633964513133109e-05  2.8042810819290358e-05  2.6946118252928031e-05  1.5077898438601057e-04  -1.1352822361422425e-03  -1.9605141821691973e-03  -1.3927715359049353e-03  -8.1220557119543175e-04  -4.3308036343214806e-04  2.1985925428602741e-04  -3.1018211622949069e-03  1.3127597318818068e-03  8.3201827434212575e-03  1.2810314297549127e-02  1.9431600737721835e-02  2.3080322889899741e-02  2.1183757407962203e-02  1.3985569735287848e-02  3.2655700522715198e-03  -9.2875120077580350e-03  -2.1828374711431398e-02  -3.2266444612051311e-02  -3.7909637805337737e-02  -3.5867080756332798e-02  -2.4127453822692654e-02  -3.7530543681177997e-03  1.5388244538700555e-02  2.1698654828500103e-02  1.5996068356907242e-02  9.4712493571952119e-03  4.5241828226243348e-03  2.4711133794196693e-03  8.2680866815765209e-04  1.6899814605755679e-04  -2.8990779492718349e-04  -1.3101101677991326e-04  1.1100714334633349e-04  -4.7965489673302275e-03  -6.3880441245516310e-03  -4.1592553401735947e-03  -5.3024636366605881e-04  -6.2306715350147061e-05  2.8399847793861470e-03  1.4603409748451677e-02  3.4859933539093620e-02  5.6661160001224953e-02  6.9221066637046191e-02  7.0380500257392759e-02  6.2019077433595207e-02  4.6756476111316454e-02  2.6578202296917073e-02  3.3206226818958870e-03  -2.1643451361780443e-02  -4.6640170851411381e-02  -6.9288938744601583e-02  -8.5944191716377960e-02  -9.1705235027133125e-02  -8.1898683259781557e-02  -5.5243757582169803e-02  -1.7872950424607542e-02  1.3444183056042910e-02  2.5260773515210524e-02  2.3256434297118093e-02  1.8547612928925889e-02  1.0515640569317074e-02  5.7069764058459644e-03  2.1952734989227900e-03  9.4250915915382533e-05  -2.8660352488940095e-04  -1.0291059291499637e-04  -1.0974004998041891e-02  -1.0930183673102509e-02  -3.2824788206646770e-03  2.4143158275934532e-03  1.1744770907863078e-02  3.6604234319270922e-02  7.4546774032515833e-02  1.0626620689060991e-01  1.2223996894656780e-01  1.2223612317187683e-01  1.0993771712119607e-01  8.9644511001455846e-02  6.4281976578903971e-02  3.5857561230682129e-02  5.3921176953679335e-03  -2.6379611453757345e-02  -5.8834365369539635e-02  -9.0600763585342067e-02  -1.1892933926723950e-01  -1.3899273695973791e-01  -1.4431681098208521e-01  -1.2903853799142656e-01  -9.2188873264397828e-02  -4.1809925670253614e-02  1.9276397689032996e-03  2.0695372563808951e-02  2.1382002937368801e-02  2.0021598530680279e-02  1.2263040140216673e-02  6.5521621474136822e-03  2.4530921470864039e-03  -2.6419724206971592e-04  -1.0434998851348986e-03  -1.9695860823821805e-02  -1.1661863567770674e-02  3.2173084239854625e-03  2.0651219796777760e-02  5.8623724603113110e-02  1.1070998094088695e-01  1.5166439242957930e-01  1.7160971956710994e-01  1.7133643903015380e-01  1.5610580673268226e-01  1.3176890541987671e-01  1.0271971874815695e-01  7.1618242758463624e-02  3.9598918302335882e-02  6.9979353667763092e-03  -2.6224818379117769e-02  -6.0188955901924898e-02  -9.4844411989318131e-02  -1.2925459073685844e-01  -1.6103712422056843e-01  -1.8520099488341840e-01  -1.9397383109220614e-01  -1.7863140577184758e-01  -1.3475007178889867e-01  -6.8967798159095886e-02  -7.1254324936344910e-03  1.8704734060944507e-02  1.9346904466179739e-02  1.9052456102032565e-02  1.2310363644902055e-02  5.9391579428940151e-03  2.0596284612588544e-04  -5.1458276379047589e-03  -2.7380254506356935e-02  -4.6158084552046603e-03  2.5017101622971171e-02  7.2194105883587920e-02  1.3650526822248943e-01  1.8870519025745913e-01  2.1433752052951607e-01  2.1446380514322838e-01  1.9641596913144971e-01  1.6860560204042052e-01  1.3692305031716123e-01  1.0452635966147053e-01  7.2358283668303602e-02  4.0408709238378256e-02  8.3543947056838076e-03  -2.4065759947789388e-02  -5.6960031823330502e-02  -9.0326385488285171e-02  -1.2422371930164887e-01  -1.5853104671622098e-01  -1.9225647393249778e-01  -2.2154499574408995e-01  -2.3749912748538241e-01  -2.2650653151242861e-01  -1.7716100505482324e-01  -9.2886591139210953e-02  -9.2138762505896751e-03  1.9274458456170450e-02  1.9327102982496701e-02  1.6581601031749583e-02  1.1335736489521948e-02  8.2052361207231295e-04  -1.3820614619392249e-02  -2.7567095797927026e-02  1.7090489139104086e-02  7.3532790835881282e-02  1.4745369521606291e-01  2.1380817552760342e-01  2.4874500788994275e-01  2.5178438610652021e-01  2.3249415053785827e-01  2.0239691346863720e-01  1.6949110230919689e-01  1.3706615742487921e-01  1.0546440902923268e-01  7.4051256828700326e-02  4.2388068124792372e-02  1.0303121105239198e-02  -2.2167437594597883e-02  -5.4879156540412879e-02  -8.7540644124968370e-02  -1.1992388557560385e-01  -1.5200790074705842e-01  -1.8439503251752348e-01  -2.1791625724832636e-01  -2.5092794319699152e-01  -2.7406010384013541e-01  -2.6765164315712542e-01  -2.1106052936572683e-01  -1.0438053910060288e-01  -2.7004401340675172e-04  1.8966711016771453e-02  2.2098557218825976e-02  1.3916466436873987e-02  1.2141238546861718e-03  -2.3179058506683912e-02  -1.3000268634494709e-02  5.8907658015287183e-02  1.4069462364180918e-01  2.2260924956952097e-01  2.7319501712785926e-01  2.8403891027651346e-01  2.6655741641529607e-01  2.3559115079311266e-01  2.0244368817276184e-01  1.7072999902526115e-01  1.3997415594995433e-01  1.0898541266229782e-01  7.7402778263129871e-02  4.5311381893436559e-02  1.2875729150948966e-02  -1.9795189677847644e-02  -5.2635609464910069e-02  -8.5561781263091399e-02  -1.1827916444824770e-01  -1.5032783577258424e-01  -1.8126781490962693e-01  -2.1162037224296307e-01  -2.4357581392774599e-01  -2.7819057238835626e-01  -3.0619575591477122e-01  -3.0064086818604296e-01  -2.3009317207133068e-01  -9.4091553569007044e-02  1.8865668293526386e-02  1.6728769598397655e-02  2.0560070154540380e-02  2.7872454715072892e-03  -2.4254396234765163e-02  1.9250022590464499e-02  1.1533933467641350e-01  2.1040242447199464e-01  2.8330468082596766e-01  3.1011948813319340e-01  2.9914055107743087e-01  2.6919282375901926e-01  2.3583647123200771e-01  2.0481262105777348e-01  1.7463741205897412e-01  1.4378330432837971e-01  1.1204018857856553e-01  7.9932988183930936e-02  4.7686033811391540e-02  1.5374050980019793e-02  -1.7062013681771952e-02  -4.9625138854154968e-02  -8.2317628428100628e-02  -1.1512257647221405e-01  -1.4792692219251258e-01  -1.8027735082553720e-01  -2.1124386916034452e-01  -2.4052232109873362e-01  -2.7086554024450654e-01  -3.0602037004061455e-01  -3.3613349714942548e-01  -3.2384585829583962e-01  -2.2654613824391148e-01  -5.2766828430812408e-02  3.0490125331394100e-02  2.1020767703202638e-02  7.9924904054457546e-05  -1.1730758944599547e-02  6.5342731127631559e-02  1.7654626463838524e-01  2.7150908416451863e-01  3.2543027309902084e-01  3.2892918727204312e-01  3.0335141367414264e-01  2.6971761128565619e-01  2.3868781938014055e-01  2.0905297188334704e-01  1.7826895453705996e-01  1.4643740360367730e-01  1.1433268121234849e-01  8.2289666808881001e-02  5.0209123844800328e-02  1.8032953863455610e-02  -1.4273983568855919e-02  -4.6673678097369560e-02  -7.9128152333244509e-02  -1.1160689059279075e-01  -1.4416908205834741e-01  -1.7693375088587987e-01  -2.0970811266235387e-01  -2.4124045321400614e-01  -2.7014636274514620e-01  -2.9945965235138083e-01  -3.3545006565043128e-01  -3.6421187057230492e-01  -3.3142448174399441e-01  -1.8763205074989892e-01  1.7937342558543724e-02  1.7297236822896671e-02  9.1024938775935670e-03  1.1538421338367003e-02  1.1873558028341402e-01  2.3443027148050430e-01  3.1967648208773336e-01  3.5170194228209323e-01  3.3712656303657995e-01  3.0476789487337597e-01  2.7242201911716118e-01  2.4318381718076298e-01  2.1276561222008511e-01  1.8092891594940769e-01  1.4885973201111638e-01  1.1697512849906194e-01  8.5074461152416042e-02  5.3044184962740465e-02  2.0885715204722242e-02  -1.1378402717444719e-02  -4.3726034551481462e-02  -7.6136305005115673e-02  -1.0856439775837227e-01  -1.4096010087872674e-01  -1.7337745650526160e-01  -2.0611664835824448e-01  -2.3929561936773608e-01  -2.7135682887921958e-01  -2.9984262808844114e-01  -3.2895335376334589e-01  -3.6692975234190062e-01  -3.8682026237263911e-01  -3.0825650990695519e-01  -9.2183194893682083e-02  4.3015938993697232e-02  9.0680508036840544e-03  3.9337658318933953e-02  1.7258006732843209e-01  2.8433067896072411e-01  3.5538559984472834e-01  3.6734360806107053e-01  3.4117519739210722e-01  3.0730466559786257e-01  2.7692255565953589e-01  2.4743348819677294e-01  2.1569459989447562e-01  1.8356948362049258e-01  1.5170854529530803e-01  1.1991535757652021e-01  8.7960841015526564e-02  5.5916528907578568e-02  2.3796494814467675e-02  -8.3852803088276182e-03  -4.0646835666704892e-02  -7.2990780235225580e-02  -1.0542548074888196e-01  -1.3792518674415463e-01  -1.7041744555472993e-01  -2.0290406469385402e-01  -2.3583124513839274e-01  -2.6956602352090026e-01  -3.0181948475161041e-01  -3.2928956559176098e-01  -3.5996811854146316e-01  -4.0003470679696740e-01  -3.9064202923540636e-01  -2.2592719250969404e-01  5.3822312996735233e-02  -2.5510828532162310e-02  6.5215378122647216e-02  2.2152879859654703e-01  3.2467178134617952e-01  3.8113805777227883e-01  3.7712521961729717e-01  3.4471593192461480e-01  3.1141408488022337e-01  2.8178134461297000e-01  2.5101423226391362e-01  2.1854080340572099e-01  1.8656159883751872e-01  1.5474121046512870e-01  1.2283471777349675e-01  9.0825017086092683e-02  5.8817513480136835e-02  2.6770655418402282e-02  -5.3217059874268845e-03  -3.7490761783860252e-02  -6.9745187370276199e-02  -1.0211397586383339e-01  -1.3462822574779734e-01  -1.6730434951396408e-01  -2.0004539329416984e-01  -2.3280121632370504e-01  -2.6625556096619318e-01  -3.0082615542326785e-01  -3.3242332783182937e-01  -3.5854741416618641e-01  -3.9505156079411796e-01  -4.2813350737331429e-01  -3.3764877812974697e-01  -2.3752732138965050e-02  1.4002392366648004e-02  8.4050820385452252e-02  2.6238112028873967e-01  3.5553533867236325e-01  3.9965039302153271e-01  3.8419104908028195e-01  3.4886223192140786e-01  3.1627847641345519e-01  2.8628342286597691e-01  2.5427197843719473e-01  2.2159754307643945e-01  1.8968557771835379e-01  1.5771232143678060e-01  1.2570475958874858e-01  9.3714967538027549e-02  6.1774427500700113e-02  2.9811027408372128e-02  -2.1846493640725029e-03  -3.4250904952410156e-02  -6.6411199028335130e-02  -9.8702771537000189e-02  -1.3116388295836887e-01  -1.6386116262159758e-01  -1.9684513847960117e-01  -2.2997860652620977e-01  -2.6321213569843710e-01  -2.9773769171507447e-01  -3.3317588843410179e-01  -3.6223075983949815e-01  -3.8999103662833595e-01  -4.3709299737040902e-01  -4.2204599780200297e-01  -1.6522711630277867e-01  1.2926378822532766e-01  9.2774916387133616e-02  2.9334218689690877e-01  3.7787924911206833e-01  4.1293976682898292e-01  3.9004804339753568e-01  3.5346479068255998e-01  3.2111854545485102e-01  2.9030875927399241e-01  2.5744291880376791e-01  2.2473817483159184e-01  1.9272192956332379e-01  1.6058310014740376e-01  1.2854923011702432e-01  9.6612285200244646e-02  6.4745831399398365e-02  3.2885185343347320e-02  1.0171670430261966e-03  -3.0909457608162681e-02  -6.2938393445836918e-02  -9.5123592624315911e-02  -1.2751457510737252e-01  -1.6017369548990745e-01  -1.9319771262097274e-01  -2.2665558764396804e-01  -2.6031568746660816e-01  -2.9440272391070232e-01  -3.3083924763206346e-01  -3.6565312214889140e-01  -3.9059970690773360e-01  -4.3255935996412281e-01  -4.7087528406937879e-01  -2.9544964523432787e-01  1.8484633919831533e-01  8.9568262774976135e-02  3.1384237273970561e-01  3.9260638940866466e-01  4.2228639200183904e-01  3.9523177882480343e-01  3.5801311414543419e-01  3.2551675912728212e-01  2.9391829426144794e-01  2.6052806464416023e-01  2.2776323489933806e-01  1.9557765656034259e-01  1.6333674561448974e-01  1.3131964427641726e-01  9.9447560624608425e-02  6.7678050911467169e-02  3.5962875919897309e-02  4.2732687726321980e-03  -2.7464822889416911e-02  -5.9306283747350141e-02  -9.1324361129783149e-02  -1.2358852388958945e-01  -1.5617113940994470e-01  -1.8916769141539330e-01  -2.2270871497788450e-01  -2.5680368236914136e-01  -2.9113511994906788e-01  -3.2697131821308056e-01  -3.6550404807877263e-01  -3.9439111356129042e-01  -4.2390941002569671e-01  -4.8618331848101448e-01  -3.8967782356515102e-01  1.4444207519124957e-01  7.4649703488818067e-02  3.2303547621749878e-01  4.0082493263230862e-01  4.2821430419040224e-01  3.9978479816351364e-01  3.6211059541095914e-01  3.2927145641770428e-01  2.9709436753859864e-01  2.6340095301188510e-01  2.3052760126120200e-01  1.9820338470480514e-01  1.6592428251975513e-01  1.3395039270308798e-01  1.0217274695877368e-01  7.0550324950195212e-02  3.9042345842476241e-02  7.5777756800286360e-03  -2.3918034668725989e-02  -5.5502671849270546e-02  -8.7274533766227153e-02  -1.1932824926283164e-01  -1.5175231960507626e-01  -1.8464383034154577e-01  -2.1817228732861291e-01  -2.5241259138443889e-01  -2.8726931416514662e-01  -3.2264390191539066e-01  -3.6191505632661647e-01  -3.9708477754603488e-01  -4.1791299594311915e-01  -4.7793764159819940e-01  -4.5596619184353193e-01  4.9447615216155635e-02  4.9446502278614766e-02  3.2013459044703202e-01  4.0321515392425572e-01  4.3079165625061577e-01  4.0372838757478074e-01  3.6552593132866673e-01  3.3229983004352015e-01  2.9981165830668222e-01  2.6596728987030610e-01  2.3294656761967519e-01  2.0054007084331546e-01  1.6827120022518105e-01  1.3636831079051337e-01  1.0473055290214976e-01  7.3313897412129250e-02  4.2059589788629365e-02  1.0876931818792016e-02  -2.0271148870242527e-02  -5.1516201754850631e-02  -8.2950620846438200e-02  -1.1468277311918201e-01  -1.4685537449513356e-01  -1.7951693714250558e-01  -2.1294683895330427e-01  -2.4712530261263169e-01  -2.8232832062083590e-01  -3.1776641681676965e-01  -3.5636234765974123e-01  -3.9628063827215187e-01  -4.1638122287941998e-01  -4.6120924420629450e-01  -5.0230309292851261e-01  -5.3616778198781349e-02  1.6289592298913389e-02  3.0454926510677677e-01  3.9992697267699062e-01  4.2982957266990496e-01  4.0678410072680504e-01  3.6832234114622231e-01  3.3450887043307753e-01  3.0195368112106424e-01  2.6813250281753365e-01  2.3494966225464262e-01  2.0251367560794245e-01  1.7031304023368660e-01  1.3851429456425407e-01  1.0707215694708389e-01  7.5917593355093238e-02  4.4988987060861262e-02  1.4193922244858437e-02  -1.6512424559200625e-02  -4.7347885410354444e-02  -7.8327024156252992e-02  -1.0961349297971895e-01  -1.4140778784487423e-01  -1.7370042004035122e-01  -2.0690801849247925e-01  -2.4087809821560280e-01  -2.7617615096386994e-01  -3.1179037211902866e-01  -3.4991915665900841e-01  -3.9173769015553173e-01  -4.1759744134989635e-01  -4.4302049693934420e-01  -5.3249288189852251e-01  -1.4637218665317095e-01  -2.0127685769674747e-02  2.7588084883800512e-01  3.8972668240547981e-01  4.2519581954944358e-01  4.0842297651031317e-01  3.7068529500206776e-01  3.3596928087769107e-01  3.0348380806891134e-01  2.6986386925202993e-01  2.3652138788927646e-01  2.0404234818253494e-01  1.7196277033745527e-01  1.4030585654625741e-01  1.0910548441053497e-01  7.8284613457147351e-02  4.7763277653031004e-02  1.7462126062193242e-02  -1.2762094378961579e-02  -4.3007573005040170e-02  -7.3374957881283398e-02  -1.0409830652900097e-01  -1.3534736799365601e-01  -1.6711448249269861e-01  -1.9994061283224007e-01  -2.3353243602198673e-01  -2.6876753212306587e-01  -3.0424529605713285e-01  -3.4269435993265324e-01  -3.8403954714307181e-01  -4.1847415920836345e-01  -4.2603368326444691e-01  -5.4880191890335939e-01  -2.2475654877428822e-01  -5.0826149808634688e-02  2.3314934696270601e-01  3.7059258170769854e-01  4.1600301664837303e-01  4.0781333938804754e-01  3.7273232326713435e-01  3.3685510009047981e-01  3.0423404579221414e-01  2.7103954470591990e-01  2.3763090136319595e-01  2.0506021124805354e-01  1.7312403521202893e-01  1.4167940824918054e-01  1.1076660296721290e-01  8.0354653640367771e-02  5.0335350004702309e-02  2.0626821317160114e-02  -8.9441189612544207e-03  -3.8415838669241816e-02  -6.8127586062485382e-02  -9.8103528265705481e-02  -1.2861770751725485e-01  -1.5968198104149228e-01  -1.9194667324227743e-01  -2.2494508633966051e-01  -2.5994723415058441e-01  -2.9491829602257447e-01  -3.3412546688835149e-01  -3.7392420793375936e-01  -4.1641908305604114e-01  -4.0941184141322184e-01  -5.5384950924721899e-01  -2.9041209769531368e-01  -6.3186534409875802e-02  1.7612255383035069e-01  3.3860594425163626e-01  4.0110303879605946e-01  4.0396811607201960e-01  3.7424247940186367e-01  3.3771413643252479e-01  3.0434204287867062e-01  2.7155728103893501e-01  2.3826681229320792e-01  2.0553034036070186e-01  1.7366381436854328e-01  1.4248111069301247e-01  1.1193097404511915e-01  8.1999697264865890e-02  5.2590801257957835e-02  2.3600571690217825e-02  -5.1591768914955420e-03  -3.3801896902211068e-02  -6.2632019715274406e-02  -9.1559346663145511e-02  -1.2119793364204839e-01  -1.5133326897627952e-01  -1.8282337884188007e-01  -2.1498886368080683e-01  -2.4948691742629292e-01  -2.8368410229403995e-01  -3.2349563939642567e-01  -3.6171481532314453e-01  -4.0975432313216392e-01  -3.9199387196752244e-01  -5.4925961934913559e-01  -3.4648254653892957e-01  -4.8139434107080832e-02  1.0682545170674572e-01  2.9146474113031468e-01  3.7767073431907172e-01  3.9566530903603653e-01  3.7437942091851001e-01  3.3878816129324640e-01  3.0399975889169462e-01  2.7116636804135452e-01  2.3820992644235314e-01  2.0542092006272838e-01  1.7351407644782732e-01  1.4258208476887768e-01  1.1248036743831410e-01  8.3149931319694947e-02  5.4467838517733798e-02  2.6347641206869155e-02  -1.4579899639911961e-03  -2.9014643888011015e-02  -5.6693130679640019e-02  -8.4495915063649840e-02  -1.1309394431787502e-01  -1.4198443869846764e-01  -1.7250148475464616e-01  -2.0351932224746686e-01  -2.3716794696986332e-01  -2.7037020272962886e-01  -3.1036895272861814e-01  -3.4722812605513259e-01  -3.9772421453627121e-01  -3.7193306982311769e-01  -5.3666192204529151e-01  -3.9569541997715219e-01  -1.4667503236660148e-02  3.7224514519552929e-02  2.2808788303369013e-01  3.4307651214321983e-01  3.8082604444354101e-01  3.7169661983720043e-01  3.4009474694954001e-01  3.0405233698251716e-01  2.7004399814121860e-01  2.3714993875350088e-01  2.0449832505623777e-01  1.7257846992998999e-01  1.4180170214173171e-01  1.1217119680157302e-01  8.3551252412946878e-02  5.5766293198095555e-02  2.8686584198981586e-02  2.0506459359950048e-03  -2.4253010218070681e-02  -5.0655184644979680e-02  -7.7067785899344848e-02  -1.0419846277337140e-01  -1.3161140108283018e-01  -1.6093543863490678e-01  -1.9034492415527146e-01  -2.2283793246073166e-01  -2.5480032639462852e-01  -2.9452970739573819e-01  -3.2989301110351371e-01  -3.8014598138246958e-01  -3.4735807837383603e-01  -5.1724174013516055e-01  -4.4030065642074162e-01  8.9106930720035064e-04  -7.2629753350928195e-03  1.5320262675748758e-01  2.9191537803124518e-01  3.5619437276159099e-01  3.6355973119860968e-01  3.3984769491554040e-01  3.0449788376567427e-01  2.6864042822418460e-01  2.3481978633629247e-01  2.0224812939785022e-01  1.7056275084412292e-01  1.4008490017118247e-01  1.1095585439587509e-01  8.3151376621117171e-02  5.6408097979861176e-02  3.0590221865320781e-02  5.3232971604708686e-03  -1.9447938781914028e-02  -4.4236411851915819e-02  -6.8957474388688364e-02  -9.4507302316599748e-02  -1.2