<?xml version="1.0"?>
<VTKFile type="UnstructuredGrid"  version="0.1"  >
<UnstructuredGrid>
<Piece  NumberOfPoints="16641" NumberOfCells="16384">
<Points>
<DataArray  type="Float64"  NumberOfComponents="3"  format="ascii">0 0 0  0.0078125 0 0  0.015625 0 0  0.0234375 0 0  0.03125 0 0  0.0390625 0 0  0.046875 0 0  0.0546875 0 0  0.0625 0 0  0.0703125 0 0  0.078125 0 0  0.0859375 0 0  0.09375 0 0  0.1015625 0 0  0.109375 0 0  0.1171875 0 0  0.125 0 0  0.1328125 0 0  0.140625 0 0  0.1484375 0 0  0.15625 0 0  0.1640625 0 0  0.171875 0 0  0.1796875 0 0  0.1875 0 0  0.1953125 0 0  0.203125 0 0  0.2109375 0 0  0.21875 0 0  0.2265625 0 0  0.234375 0 0  0.2421875 0 0  0.25 0 0  0.2578125 0 0  0.265625 0 0  0.2734375 0 0  0.28125 0 0  0.2890625 0 0  0.296875 0 0  0.3046875 0 0  0.3125 0 0  0.3203125 0 0  0.328125 0 0  0.3359375 0 0  0.34375 0 0  0.3515625 0 0  0.359375 0 0  0.3671875 0 0  0.375 0 0  0.3828125 0 0  0.390625 0 0  0.3984375 0 0  0.40625 0 0  0.4140625 0 0  0.421875 0 0  0.4296875 0 0  0.4375 0 0  0.4453125 0 0  0.453125 0 0  0.4609375 0 0  0.46875 0 0  0.4765625 0 0  0.484375 0 0  0.4921875 0 0  0.5 0 0  0.5078125 0 0  0.515625 0 0  0.5234375 0 0  0.53125 0 0  0.5390625 0 0  0.546875 0 0  0.5546875 0 0  0.5625 0 0  0.5703125 0 0  0.578125 0 0  0.5859375 0 0  0.59375 0 0  0.6015625 0 0  0.609375 0 0  0.6171875 0 0  0.625 0 0  0.6328125 0 0  0.640625 0 0  0.6484375 0 0  0.65625 0 0  0.6640625 0 0  0.671875 0 0  0.6796875 0 0  0.6875 0 0  0.6953125 0 0  0.703125 0 0  0.7109375 0 0  0.71875 0 0  0.7265625 0 0  0.734375 0 0  0.7421875 0 0  0.75 0 0  0.7578125 0 0  0.765625 0 0  0.7734375 0 0  0.78125 0 0  0.7890625 0 0  0.796875 0 0  0.8046875 0 0  0.8125 0 0  0.8203125 0 0  0.828125 0 0  0.8359375 0 0  0.84375 0 0  0.8515625 0 0  0.859375 0 0  0.8671875 0 0  0.875 0 0  0.8828125 0 0  0.890625 0 0  0.8984375 0 0  0.90625 0 0  0.9140625 0 0  0.921875 0 0  0.9296875 0 0  0.9375 0 0  0.9453125 0 0  0.953125 0 0  0.9609375 0 0  0.96875 0 0  0.9765625 0 0  0.984375 0 0  0.9921875 0 0  1 0 0  0 0.0078125 0  0.0078125 0.0078125 0  0.015625 0.0078125 0  0.0234375 0.0078125 0  0.03125 0.0078125 0  0.0390625 0.0078125 0  0.046875 0.0078125 0  0.0546875 0.0078125 0  0.0625 0.0078125 0  0.0703125 0.0078125 0  0.078125 0.0078125 0  0.0859375 0.0078125 0  0.09375 0.0078125 0  0.1015625 0.0078125 0  0.109375 0.0078125 0  0.1171875 0.0078125 0  0.125 0.0078125 0  0.1328125 0.0078125 0  0.140625 0.0078125 0  0.1484375 0.0078125 0  0.15625 0.0078125 0  0.1640625 0.0078125 0  0.171875 0.0078125 0  0.1796875 0.0078125 0  0.1875 0.0078125 0  0.1953125 0.0078125 0  0.203125 0.0078125 0  0.2109375 0.0078125 0  0.21875 0.0078125 0  0.2265625 0.0078125 0  0.234375 0.0078125 0  0.2421875 0.0078125 0  0.25 0.0078125 0  0.2578125 0.0078125 0  0.265625 0.0078125 0  0.2734375 0.0078125 0  0.28125 0.0078125 0  0.2890625 0.0078125 0  0.296875 0.0078125 0  0.3046875 0.0078125 0  0.3125 0.0078125 0  0.3203125 0.0078125 0  0.328125 0.0078125 0  0.3359375 0.0078125 0  0.34375 0.0078125 0  0.3515625 0.0078125 0  0.359375 0.0078125 0  0.3671875 0.0078125 0  0.375 0.0078125 0  0.3828125 0.0078125 0  0.390625 0.0078125 0  0.3984375 0.0078125 0  0.40625 0.0078125 0  0.4140625 0.0078125 0  0.421875 0.0078125 0  0.4296875 0.0078125 0  0.4375 0.0078125 0  0.4453125 0.0078125 0  0.453125 0.0078125 0  0.4609375 0.0078125 0  0.46875 0.0078125 0  0.4765625 0.0078125 0  0.484375 0.0078125 0  0.4921875 0.0078125 0  0.5 0.0078125 0  0.5078125 0.0078125 0  0.515625 0.0078125 0  0.5234375 0.0078125 0  0.53125 0.0078125 0  0.5390625 0.0078125 0  0.546875 0.0078125 0  0.5546875 0.0078125 0  0.5625 0.0078125 0  0.5703125 0.0078125 0  0.578125 0.0078125 0  0.5859375 0.0078125 0  0.59375 0.0078125 0  0.6015625 0.0078125 0  0.609375 0.0078125 0  0.6171875 0.0078125 0  0.625 0.0078125 0  0.6328125 0.0078125 0  0.640625 0.0078125 0  0.6484375 0.0078125 0  0.65625 0.0078125 0  0.6640625 0.0078125 0  0.671875 0.0078125 0  0.6796875 0.0078125 0  0.6875 0.0078125 0  0.6953125 0.0078125 0  0.703125 0.0078125 0  0.7109375 0.0078125 0  0.71875 0.0078125 0  0.7265625 0.0078125 0  0.734375 0.0078125 0  0.7421875 0.0078125 0  0.75 0.0078125 0  0.7578125 0.0078125 0  0.765625 0.0078125 0  0.7734375 0.0078125 0  0.78125 0.0078125 0  0.7890625 0.0078125 0  0.796875 0.0078125 0  0.8046875 0.0078125 0  0.8125 0.0078125 0  0.8203125 0.0078125 0  0.828125 0.0078125 0  0.8359375 0.0078125 0  0.84375 0.0078125 0  0.8515625 0.0078125 0  0.859375 0.0078125 0  0.8671875 0.0078125 0  0.875 0.0078125 0  0.8828125 0.0078125 0  0.890625 0.0078125 0  0.8984375 0.0078125 0  0.90625 0.0078125 0  0.9140625 0.0078125 0  0.921875 0.0078125 0  0.9296875 0.0078125 0  0.9375 0.0078125 0  0.9453125 0.0078125 0  0.953125 0.0078125 0  0.9609375 0.0078125 0  0.96875 0.0078125 0  0.9765625 0.0078125 0  0.984375 0.0078125 0  0.9921875 0.0078125 0  1 0.0078125 0  0 0.015625 0  0.0078125 0.015625 0  0.015625 0.015625 0  0.0234375 0.015625 0  0.03125 0.015625 0  0.0390625 0.015625 0  0.046875 0.015625 0  0.0546875 0.015625 0  0.0625 0.015625 0  0.0703125 0.015625 0  0.078125 0.015625 0  0.0859375 0.015625 0  0.09375 0.015625 0  0.1015625 0.015625 0  0.109375 0.015625 0  0.1171875 0.015625 0  0.125 0.015625 0  0.1328125 0.015625 0  0.140625 0.015625 0  0.1484375 0.015625 0  0.15625 0.015625 0  0.1640625 0.015625 0  0.171875 0.015625 0  0.1796875 0.015625 0  0.1875 0.015625 0  0.1953125 0.015625 0  0.203125 0.015625 0  0.2109375 0.015625 0  0.21875 0.015625 0  0.2265625 0.015625 0  0.234375 0.015625 0  0.2421875 0.015625 0  0.25 0.015625 0  0.2578125 0.015625 0  0.265625 0.015625 0  0.2734375 0.015625 0  0.28125 0.015625 0  0.2890625 0.015625 0  0.296875 0.015625 0  0.3046875 0.015625 0  0.3125 0.015625 0  0.3203125 0.015625 0  0.328125 0.015625 0  0.3359375 0.015625 0  0.34375 0.015625 0  0.3515625 0.015625 0  0.359375 0.015625 0  0.3671875 0.015625 0  0.375 0.015625 0  0.3828125 0.015625 0  0.390625 0.015625 0  0.3984375 0.015625 0  0.40625 0.015625 0  0.4140625 0.015625 0  0.421875 0.015625 0  0.4296875 0.015625 0  0.4375 0.015625 0  0.4453125 0.015625 0  0.453125 0.015625 0  0.4609375 0.015625 0  0.46875 0.015625 0  0.4765625 0.015625 0  0.484375 0.015625 0  0.4921875 0.015625 0  0.5 0.015625 0  0.5078125 0.015625 0  0.515625 0.015625 0  0.5234375 0.015625 0  0.53125 0.015625 0  0.5390625 0.015625 0  0.546875 0.015625 0  0.5546875 0.015625 0  0.5625 0.015625 0  0.5703125 0.015625 0  0.578125 0.015625 0  0.5859375 0.015625 0  0.59375 0.015625 0  0.6015625 0.015625 0  0.609375 0.015625 0  0.6171875 0.015625 0  0.625 0.015625 0  0.6328125 0.015625 0  0.640625 0.015625 0  0.6484375 0.015625 0  0.65625 0.015625 0  0.6640625 0.015625 0  0.671875 0.015625 0  0.6796875 0.015625 0  0.6875 0.015625 0  0.6953125 0.015625 0  0.703125 0.015625 0  0.7109375 0.015625 0  0.71875 0.015625 0  0.7265625 0.015625 0  0.734375 0.015625 0  0.7421875 0.015625 0  0.75 0.015625 0  0.7578125 0.015625 0  0.765625 0.015625 0  0.7734375 0.015625 0  0.78125 0.015625 0  0.7890625 0.015625 0  0.796875 0.015625 0  0.8046875 0.015625 0  0.8125 0.015625 0  0.8203125 0.015625 0  0.828125 0.015625 0  0.8359375 0.015625 0  0.84375 0.015625 0  0.8515625 0.015625 0  0.859375 0.015625 0  0.8671875 0.015625 0  0.875 0.015625 0  0.8828125 0.015625 0  0.890625 0.015625 0  0.8984375 0.015625 0  0.90625 0.015625 0  0.9140625 0.015625 0  0.921875 0.015625 0  0.9296875 0.015625 0  0.9375 0.015625 0  0.9453125 0.015625 0  0.953125 0.015625 0  0.9609375 0.015625 0  0.96875 0.015625 0  0.9765625 0.015625 0  0.984375 0.015625 0  0.9921875 0.015625 0  1 0.015625 0  0 0.0234375 0  0.0078125 0.0234375 0  0.015625 0.0234375 0  0.0234375 0.0234375 0  0.03125 0.0234375 0  0.0390625 0.0234375 0  0.046875 0.0234375 0  0.0546875 0.0234375 0  0.0625 0.0234375 0  0.0703125 0.0234375 0  0.078125 0.0234375 0  0.0859375 0.0234375 0  0.09375 0.0234375 0  0.1015625 0.0234375 0  0.109375 0.0234375 0  0.1171875 0.0234375 0  0.125 0.0234375 0  0.1328125 0.0234375 0  0.140625 0.0234375 0  0.1484375 0.0234375 0  0.15625 0.0234375 0  0.1640625 0.0234375 0  0.171875 0.0234375 0  0.1796875 0.0234375 0  0.1875 0.0234375 0  0.1953125 0.0234375 0  0.203125 0.0234375 0  0.2109375 0.0234375 0  0.21875 0.0234375 0  0.2265625 0.0234375 0  0.234375 0.0234375 0  0.2421875 0.0234375 0  0.25 0.0234375 0  0.2578125 0.0234375 0  0.265625 0.0234375 0  0.2734375 0.0234375 0  0.28125 0.0234375 0  0.2890625 0.0234375 0  0.296875 0.0234375 0  0.3046875 0.0234375 0  0.3125 0.0234375 0  0.3203125 0.0234375 0  0.328125 0.0234375 0  0.3359375 0.0234375 0  0.34375 0.0234375 0  0.3515625 0.0234375 0  0.359375 0.0234375 0  0.3671875 0.0234375 0  0.375 0.0234375 0  0.3828125 0.0234375 0  0.390625 0.0234375 0  0.3984375 0.0234375 0  0.40625 0.0234375 0  0.4140625 0.0234375 0  0.421875 0.0234375 0  0.4296875 0.0234375 0  0.4375 0.0234375 0  0.4453125 0.0234375 0  0.453125 0.0234375 0  0.4609375 0.0234375 0  0.46875 0.0234375 0  0.4765625 0.0234375 0  0.484375 0.0234375 0  0.4921875 0.0234375 0  0.5 0.0234375 0  0.5078125 0.0234375 0  0.515625 0.0234375 0  0.5234375 0.0234375 0  0.53125 0.0234375 0  0.5390625 0.0234375 0  0.546875 0.0234375 0  0.5546875 0.0234375 0  0.5625 0.0234375 0  0.5703125 0.0234375 0  0.578125 0.0234375 0  0.5859375 0.0234375 0  0.59375 0.0234375 0  0.6015625 0.0234375 0  0.609375 0.0234375 0  0.6171875 0.0234375 0  0.625 0.0234375 0  0.6328125 0.0234375 0  0.640625 0.0234375 0  0.6484375 0.0234375 0  0.65625 0.0234375 0  0.6640625 0.0234375 0  0.671875 0.0234375 0  0.6796875 0.0234375 0  0.6875 0.0234375 0  0.6953125 0.0234375 0  0.703125 0.0234375 0  0.7109375 0.0234375 0  0.71875 0.0234375 0  0.7265625 0.0234375 0  0.734375 0.0234375 0  0.7421875 0.0234375 0  0.75 0.0234375 0  0.7578125 0.0234375 0  0.765625 0.0234375 0  0.7734375 0.0234375 0  0.78125 0.0234375 0  0.7890625 0.0234375 0  0.796875 0.0234375 0  0.8046875 0.0234375 0  0.8125 0.0234375 0  0.8203125 0.0234375 0  0.828125 0.0234375 0  0.8359375 0.0234375 0  0.84375 0.0234375 0  0.8515625 0.0234375 0  0.859375 0.0234375 0  0.8671
[...]
<PointData  Scalars="u_sol"> 
<DataArray  type="Float64"  Name="u_sol"  format="ascii">1.4773844158987987e-06  -6.2715725342422217e-06  -1.7972462575478884e-05  -2.3984694948049515e-05  -2.4223264152663202e-05  -1.8835500445490168e-05  -8.6433623186115061e-06  5.3091363536564774e-06  2.1587664388490081e-05  3.8622473930564874e-05  5.4888080734125128e-05  6.9153642959672516e-05  8.0629545860224239e-05  8.9036077268233891e-05  9.4566815912661221e-05  9.7790743907461683e-05  9.9523015100433466e-05  1.0070238924906186e-04  1.0229319456201468e-04  1.0521779605829316e-04  1.1031202311936108e-04  1.1829233253415733e-04  1.2972607303646773e-04  1.4500563543478102e-04  1.6433801169141410e-04  1.8776778052393710e-04  2.1524760272043802e-04  2.4675435821695427e-04  2.8242620618792211e-04  3.2267785985861741e-04  3.6825060555295270e-04  4.2017541716805385e-04  4.7966353027333638e-04  5.4797034594965082e-04  6.2628569173069440e-04  7.1567720023041337e-04  8.1706966284183439e-04  9.3121556236615180e-04  1.0586195114532307e-03  1.1994063760529289e-03  1.3531447960694171e-03  1.5186484786354295e-03  1.6937777846102865e-03  1.8752566357290619e-03  2.0585195628883986e-03  2.2376094374391485e-03  2.4051393631303064e-03  2.5523310310969528e-03  2.6691753513931474e-03  2.7447875018589240e-03  2.7679860340282347e-03  2.7280362029942651e-03  2.6154363989278548e-03  2.4226309283354218e-03  2.1445774811485840e-03  1.7791467086307985e-03  1.3273624520138700e-03  7.9350499260051838e-04  1.8510506561481989e-04  -4.8714339117839289e-04  -1.2095261714608892e-03  -1.9654884207861547e-03  -2.7358430997461432e-03  -3.4990139137878002e-03  -4.2313338617067063e-03  -4.9074337789667358e-03  -5.5007651668781939e-03  -5.9843048905237010e-03  -6.3314843315842237e-03  -6.5173703503959013e-03  -6.5200977528950248e-03  -6.3225149431733853e-03  -5.9139543616485279e-03  -5.2919851111155542e-03  -4.4639520991637156e-03  -3.4480662757134209e-03  -2.2737970543613979e-03  -9.8134399569701613e-04  3.7996007538546300e-04  1.7543380755224839e-03  3.0832100955726634e-03  4.3094715386539362e-03  5.3819388832240384e-03  6.2594036079673919e-03  6.9137399764012059e-03  7.3316261012682724e-03  7.5146476683896849e-03  7.4778193453937649e-03  7.2468220603777141e-03  6.8544552343682199e-03  6.3368964327813176e-03  5.7303308252344472e-03  5.0683744947257600e-03  4.3805098785090132e-03  3.6915274429832902e-03  3.0217714815200017e-03  2.3878523606961619e-03  1.8034323596691187e-03  1.2797311061745189e-03  8.2553433179325644e-04  4.4671063209398372e-04  1.4548492804510377e-04  -8.0117933823579531e-05  -2.3626158062377904e-04  -3.3254074150776560e-04  -3.8062179884164305e-04  -3.9266817290579666e-04  -3.7997073896884774e-04  -3.5204684898412617e-04  -3.1625946442382632e-04  -2.7785663405024464e-04  -2.4027239901586064e-04  -2.0553630416230993e-04  -1.7467681262389940e-04  -1.4805267424033492e-04  -1.2558941461296536e-04  -1.0693248138424728e-04  -9.1541423616154318e-05  -7.8756680609119020e-05  -6.7851671421543239e-05  -5.8093095809416777e-05  -4.8790394772762859e-05  -3.9376910551972367e-05  -2.9461318436130086e-05  -1.8973707905898156e-05  -8.3481295388678360e-06  1.1210647550661580e-06  5.1856902671521666e-06  -2.5707359560328172e-07  3.9761362286110517e-06  -2.3540042238364273e-05  -2.5968688132501901e-05  5.8415228640300786e-05  2.5055960747578487e-04  5.5290555228544526e-04  9.5369757940090409e-04  1.4313614169587010e-03  1.9578209107104310e-03  2.5022093631969495e-03  3.0346773705980704e-03  3.5297705113765980e-03  3.9689366725338803e-03  4.3418519842499254e-03  4.6465510539811699e-03  4.8885383057197078e-03  5.0792008507421146e-03  5.2338614992472523e-03  5.3697591419871720e-03  5.5041435487647953e-03  5.6525783905757541e-03  5.8274903365081333e-03  6.0370020104232877e-03  6.2841287678719170e-03  6.5664655637777672e-03  6.8764869096728173e-03  7.2024885328873106e-03  7.5300143992621761e-03  7.8433987912796491e-03  8.1269190695465836e-03  8.3651058646422218e-03  8.5420247747485922e-03  8.6397382665045208e-03  8.6364864341593947e-03  8.5051991886893972e-03  8.2127226472316194e-03  7.7197663464839876e-03  6.9813184302911736e-03  5.9472948151293925e-03  4.5634062759916313e-03  2.7724207190823759e-03  5.1602926584071813e-04  -2.2626006094190634e-03  -5.6156842231267264e-03  -9.5872614526657587e-03  -1.4209358703228359e-02  -1.9498116865563013e-02  -2.5450374778634415e-02  -3.2041253499507205e-02  -3.9223063182613614e-02  -4.6925586304197783e-02  -5.5057641102348072e-02  -6.3509755858881842e-02  -7.2157710611304798e-02  -8.0866619153825758e-02  -8.9495172417853208e-02  -9.7899673968507128e-02  -1.0593757397059392e-01  -1.1347032499899373e-01  -1.2036550922791105e-01  -1.2649829799379439e-01  -1.3175238414629198e-01  -1.3602057252320310e-01  -1.3920522898622206e-01  -1.4121877940343058e-01  -1.4198442509939471e-01  -1.4143720560199974e-01  -1.3952549692063726e-01  -1.3621298513159200e-01  -1.3148109938252819e-01  -1.2533182789865463e-01  -1.1779077263704323e-01  -1.0891022636452782e-01  -9.8771983772721908e-02  -8.7489534960758217e-02  -7.5209245155223897e-02  -6.2110114278775101e-02  -4.8401747873997224e-02  -3.4320269189615608e-02  -2.0122065041633597e-02  -6.0754776497431353e-03  7.5491891692118472e-03  2.0490724640257963e-02  3.2508286621502534e-02  4.3391928232470782e-02  5.2971393266093750e-02  6.1122319490738639e-02  6.7769238167769516e-02  7.2885107961356582e-02  7.6487529668476412e-02  7.8632202429238837e-02  7.9404544287187184e-02  7.8910657468374543e-02  7.7268924931120322e-02  7.4603445077461403e-02  7.1040222554887969e-02  6.6706527244326727e-02  6.1733131458960408e-02  5.6258313885012470e-02  5.0431751064651364e-02  4.4415989483677906e-02  3.8383445450433012e-02  3.2508026713122432e-02  2.6952330594796507e-02  2.1853262802384064e-02  1.7309903271802100e-02  1.3376916695093555e-02  1.0064960659870278e-02  7.3472957093790019e-03  5.1701891684751561e-03  3.4642698255922619e-03  2.1545818588086974e-03  1.1681479220159536e-03  4.3884284506995054e-04  -9.0001783444905800e-05  -4.6463958732014644e-04  -7.2105094800046046e-04  -8.8581474478561584e-04  -9.7747931433371255e-04  -1.0082842285965487e-03  -9.8609155725610772e-04  -9.1643477684707868e-04  -8.0455739652397036e-04  -6.5749124682418193e-04  -4.8601497429948354e-04  -3.0690978419798548e-04  -1.4441022995864098e-04  -3.1279542645233445e-05  6.4610852091759117e-06  -7.0395572651010068e-07  1.8618524846589772e-06  7.9550132419285276e-05  2.9694394651806275e-04  6.8082510544734815e-04  1.2334630168822607e-03  1.9358502817897042e-03  2.7538065117204374e-03  3.6434844543300048e-03  4.5572972768153728e-03  5.4495448919517145e-03  6.2812519906161662e-03  7.0236597886637027e-03  7.6601021637698790e-03  8.1862463891560627e-03  8.6089266196651363e-03  8.9439374782213452e-03  9.2132028036791009e-03  9.4416913371420299e-03  9.6543615926997089e-03  9.8733225679394077e-03  1.0115337419117973e-02  1.0389791569673457e-02  1.0697282177382455e-02  1.1029014346698214e-02  1.1367145810720047e-02  1.1686058173519209e-02  1.1954260905121271e-02  1.2136348444348558e-02  1.2194285652752757e-02  1.2087432138165257e-02  1.1771156088470696e-02  1.1194476052485650e-02  1.0297612758667321e-02  9.0103755982282960e-03  7.2519297736728895e-03  4.9319767483060051e-03  1.9531171395836381e-03  -1.7857161270082417e-03  -6.3846289439427233e-03  -1.1936812664414521e-02  -1.8521354327247757e-02  -2.6195141357655747e-02  -3.4984535474219570e-02  -4.4877932859028517e-02  -5.5820501860281438e-02  -6.7712090548542478e-02  -8.0408762484617896e-02  -9.3727954186163823e-02  -1.0745686567009033e-01  -1.2136325170526054e-01  -1.3520733404768090e-01  -1.4875334675333465e-01  -1.6177939355820531e-01  -1.7408475661798614e-01  -1.8549435174663897e-01  -1.9586050585740436e-01  -2.0506254417579445e-01  -2.1300481220041825e-01  -2.1961375685149345e-01  -2.2483460456379020e-01  -2.2862805192958649e-01  -2.3096725998477299e-01  -2.3183533621314739e-01  -2.3122340710039541e-01  -2.2912932921930573e-01  -2.2555705289391795e-01  -2.2051663323948523e-01  -2.1402487019510438e-01  -2.0610654843548626e-01  -1.9679622785982326e-01  -1.8614050422131284e-01  -1.7420061415774293e-01  -1.6105519737768570e-01  -1.4680295788869618e-01  -1.3156489709396946e-01  -1.1548573981703565e-01  -9.8734162701045708e-02  -8.1501482315455759e-02  -6.3998581668303717e-02  -4.6451047548193444e-02  -2.9092732038695928e-02  -1.2158198128482851e-02  4.1252963363070487e-03  1.9545530297501307e-02  3.3912058322347838e-02  4.7061404000676085e-02  5.8860382580129565e-02  6.9207462076514695e-02  7.8032261541638503e-02  8.5293410488252314e-02  9.0975080865698527e-02  9.5082602224654172e-02  9.7637727466602056e-02  9.8674338452512000e-02  9.8235616426394459e-02  9.6373836373111962e-02  9.3153808385045944e-02  8.8660395842439052e-02  8.3009364652992093e-02  7.6359136913543985e-02  6.8919289501466682e-02  6.0950753971196078e-02  5.2753724501489060e-02  4.4642780935566742e-02  3.6913743747167958e-02  2.9810836304755176e-02  2.3503288752087508e-02  1.8076993314886495e-02  1.3541217905246424e-02  9.8457509432690569e-03  6.9020959567145414e-03  4.6033446388366725e-03  2.8397088552560342e-03  1.5089298639029251e-03  5.2215899674217566e-04  -1.9360502878600465e-04  -6.9548278582545568e-04  -1.0262780137409336e-03  -1.2170425761214244e-03  -1.2902031718653800e-03  -1.2629065424979056e-03  -1.1503604544831725e-03  -9.6897503336794476e-04  -7.3928262663939409e-04  -4.8814242866912266e-04  -2.5050787569108835e-04  -6.6460945069850378e-05  1.2837262793185629e-05  -7.3147450950388316e-06  3.6021761642791052e-05  2.1385179392238366e-04  5.7789109240357630e-04  1.1501310705207559e-03  1.9266273259653638e-03  2.8798397323407479e-03  3.9647001785722393e-03  5.1255325434170400e-03  6.3034050342954994e-03  7.4429361308847143e-03  8.4978157121315921e-03  9.4345290812818221e-03  1.0234098695087327e-02  1.0891966352020943e-02  1.1416345642580981e-02  1.1825473510208896e-02  1.2144187593440265e-02  1.2400193256017442e-02  1.2620297067602145e-02  1.2826811366395647e-02  1.3034304916566104e-02  1.3246896717347580e-02  1.3456338774651100e-02  1.3641147727498771e-02  1.3766945872752460e-02  1.3787911707632911e-02  1.3648860363463225e-02  1.3287134013132784e-02  1.2633409229098367e-02  1.1610888168350706e-02  1.0133083537331933e-02  8.1012131737632602e-03  5.4026319012101219e-03  1.9114766134854060e-03  -2.5079975634382610e-03  -7.9954865724025433e-03  -1.4686335875287329e-02  -2.2700999046201473e-02  -3.2132477983846656e-02  -4.3032521366935778e-02  -5.5398316555760795e-02  -6.9162117166683926e-02  -8.4186128097530205e-02  -1.0026425251406021e-01  -1.1713138732752144e-01  -1.3447973400774713e-01  -1.5198007639273670e-01  -1.6930475101790907e-01  -1.8614870224424138e-01  -2.0224569281552077e-01  -2.1737808300476069e-01  -2.3138005964417274e-01  -2.4413534442192461e-01  -2.5557102828521711e-01  -2.6564928732008897e-01  -2.7435848752576442e-01  -2.8170477009142258e-01  -2.8770477085744600e-01  -2.9237976223057882e-01  -2.9575124698288441e-01  -2.9783788164661640e-01  -2.9865354068801575e-01  -2.9820632534524921e-01  -2.9649834912413181e-01  -2.9352617535521713e-01  -2.8928182892886634e-01  -2.8375434460741089e-01  -2.7693184608888693e-01  -2.6880416314532041e-01  -2.5936599229918472e-01  -2.4862058090499251e-01  -2.3658386315692365e-01  -2.2328889936708665e-01  -2.0879036628998895e-01  -1.9316872549719774e-01  -1.7653357795991123e-01  -1.5902562340900245e-01  -1.4081662317442115e-01  -1.2210685425309570e-01  -1.0311976953243666e-01  -8.4093946293675684e-02  -6.5272866306186880e-02  -4.6893537286398695e-02  -2.9175313027676526e-02  -1.2310379641537883e-02  3.5428197129271522e-03  1.8262427575576314e-02  3.1762136627808898e-02  4.3986769876662536e-02  5.4905432954997377e-02  6.4503378151219815e-02  7.2773638121760173e-02  7.9709260047490696e-02  8.5296773667374329e-02  8.9511516820581560e-02  9.2315681758163889e-02  9.3660353366840365e-02  9.3493130091401408e-02  9.1772726875671673e-02  8.8490761484430427e-02  8.3698404850832214e-02  7.7532039725064200e-02  7.0228892154496944e-02  6.2123142831910255e-02  5.3617409689506665e-02  4.5133397325421591e-02  3.7054874371637403e-02  2.9680142784234930e-02  2.3196871288080092e-02  1.7682357935903958e-02  1.3123087288603369e-02  9.4432943025241339e-03  6.5333666631737473e-03  4.2726955958954441e-03  2.5452865151227720e-03  1.2487356481262698e-03  2.9806944892345059e-04  -3.7400041821259296e-04  -8.1911146807891262e-04  -1.0765825675789482e-03  -1.1773119768819817e-03  -1.1477457133309409e-03  -1.0135532824906235e-03  -8.0290154424024485e-04  -5.4882395905260571e-04  -2.9181156765107084e-04  -7.9715836219144742e-05  1.5526777383319237e-05  -1.3824930614978214e-05  6.8906908501062460e-05  3.4958204018090838e-04  8.6409474141343286e-04  1.6234384065527969e-03  2.6123841559391385e-03  3.7911456476354944e-03  5.1017569079480620e-03  6.4763065061411553e-03  7.8457011064827931e-03  9.1474933583431985e-03  1.0331758508086084e-02  1.1364501177537947e-02  1.2228596022446822e-02  1.2922645348808574e-02  1.3458317652558484e-02  1.3856729643462058e-02  1.4144323832071187e-02  1.4348551214105384e-02  1.4493555997635408e-02  1.4596012219969125e-02  1.4661293058238370e-02  1.4680244968548554e-02  1.4626932461773920e-02  1.4457716251761153e-02  1.4111823894471570e-02  1.3513138783693654e-02  1.2572402818074552e-02  1.1188705200700361e-02  9.2493559174937519e-03  6.6281365236930539e-03  3.1831638759609363e-03  -1.2435138333748963e-03  -6.8225720739109276e-03  -1.3729338429714180e-02  -2.2131241326036773e-02  -3.2171651466688538e-02  -4.3951058304422620e-02  -5.7507044632783187e-02  -7.2795958339835903e-02  -8.9680379123315945e-02  -1.0792632195858770e-01  -1.2721276709550558e-01  -1.4715385805996631e-01  -1.6733110108209132e-01  -1.8733001476605302e-01  -2.0677430102641445e-01  -2.2535147890122076e-01  -2.4282658404626978e-01  -2.5904376194382289e-01  -2.7391816994774160e-01  -2.8742191274145712e-01  -2.9956777501238174e-01  -3.1039369888674562e-01  -3.1994980674928503e-01  -3.2828869626735213e-01  -3.3545894885264138e-01  -3.4150133997820081e-01  -3.4644706904041361e-01  -3.5031734104958318e-01  -3.5312374870697966e-01  -3.5486905164422677e-01  -3.5554809270008791e-01  -3.5514871035624362e-01  -3.5365259651342112e-01  -3.5103611485338726e-01  -3.4727114231801698e-01  -3.4232603204980894e-01  -3.3616682191517966e-01  -3.2875883432759556e-01  -3.2006882321030028e-01  -3.1006782092900403e-01  -2.9873480948742503e-01  -2.8606127630453559e-01  -2.7205660187735520e-01  -2.5675405899932296e-01  -2.4021698373679204e-01  -2.2254442938154345e-01  -2.0387538331995542e-01  -1.8439048399471319e-01  -1.6431020564001123e-01  -1.4388875569584522e-01  -1.2340348148157254e-01  -1.0314035909583534e-01  -8.3376992231054589e-02  -6.4365263389116842e-02  -4.6316124553751815e-02  -2.9388830907350883e-02  -1.3686207675861985e-02  7.4353077443034955e-04  1.3899019338933642e-02  2.5813524218611023e-02  3.6540173464343094e-02  4.6136478028836352e-02  5.4649595915428423e-02  6.2103347547328325e-02  6.8487780111844795e-02  7.3752293851771011e-02  7.7803986783594015e-02  8.0513683434486324e-02  8.1732505916650031e-02  8.1320950242929083e-02  7.9189371321781429e-02  7.5343394980410885e-02  6.9921613406298475e-02  6.3209678188224858e-02  5.5618894243188916e-02  4.7629761119974828e-02  3.9716318343122683e-02  3.2276039177459498e-02  2.5586188879782482e-02  1.9794051970915841e-02  1.4934576969599081e-02  1.0962131467783942e-02  7.7839599940095865e-03  5.2878162352337109e-03  3.3611426854741598e-03  1.9022534779288397e-03  8.2525705678747796e-04  6.0652688664426674e-05  -4.4672731113547980e-04  -7.4114019944337094e-04  -8.5982436126126973e-04  -8.3676749336096317e-04  -7.0615959758679617e-04  -5.0523692327122580e-04  -2.7804956129904630e-04  -7.7785331300357348e-05  1.5181230730752779e-05  -1.9896005337542729e-05  9.9148711270530504e-05  4.8147581890065500e-04  1.1499655426405577e-03  2.1012286885042594e-03  3.3039039652813938e-03  4.7008328326577356e-03  6.2167827237612217e-03  7.7686770269434742e-03  9.2762343022861696e-03  1.0670941290347007e-02  1.1902018449560499e-02  1.2938922137823949e-02  1.3770714193203476e-02  1.4403110086763224e-02  1.4854128493727081e-02  1.5149106299552403e-02  1.5315561495979627e-02  1.5378125042945627e-02  1.5353611327296639e-02  1.5246292492179748e-02  1.5043571569396594e-02  1.4712448241762729e-02  1.4197314170961218e-02  1.3419536499350416e-02  1.2278865371370320e-02  1.0655997301174697e-02  8.4149965577473493e-03  5.4042784144396321e-03  1.4558834569049842e-03  -3.6154236487682860e-03  -1.0010138639499793e-02  -1.7935886542307922e-02  -2.7591688185074868e-02  -3.9145600058745539e-02  -5.2708314078573855e-02  -6.8305999255487013e-02  -8.5856708589813951e-02  -1.0515602416414441e-01  -1.2587776875417503e-01  -1.4759352201716913e-01  -1.6981033261906237e-01  -1.9202052734233968e-01  -2.1375321015339876e-01  -2.3461625340616504e-01  -2.5432085471162225e-01  -2.7268639802984734e-01  -2.8962878631825278e-01  -3.0513864346604230e-01  -3.1925629821600587e-01  -3.3204894964223158e-01  -3.4359304658359419e-01  -3.5396269903646788e-01  -3.6322342711761718e-01  -3.7142983606176300e-01  -3.7862570879831697e-01  -3.8484526758998822e-01  -3.9011474235430732e-01  -3.9445374848164610e-01  -3.9787625598518173e-01  -4.0039110841659048e-01  -4.0200214547600499e-01  -4.0270802098996078e-01  -4.0250181346920966e-01  -4.0137051974801508e-01  -3.9929451393507681e-01  -3.9624705282083467e-01  -3.9219391748995308e-01  -3.8709330237694889e-01  -3.8089609444490508e-01  -3.7354672625580709e-01  -3.6498482864717763e-01  -3.5514794311712311e-01  -3.4397556138700947e-01  -3.3141471875867945e-01  -3.1742724926718469e-01  -3.0199858918066685e-01  -2.8514768020521464e-01  -2.6693708995121534e-01  -2.4748200059100967e-01  -2.2695633007715069e-01  -2.0559410358825464e-01  -1.8368444389516358e-01  -1.6155929217449752e-01  -1.3957417433530422e-01  -1.1808378006127161e-01  -9.7415465089562975e-02  -7.7844605908589645e-02  -5.9575705595736862e-02  -4.2732187599782284e-02  -2.7356157442281152e-02  -1.3417551803382147e-02  -8.3058640420591030e-04  1.0525353628079097e-02  2.0783195801497619e-02  3.0066229417601172e-02  3.8468129220953225e-02  4.6035846409452713e-02  5.2756344386894347e-02  5.8548938928076034e-02  6.3266261762484996e-02  6.6707959618320128e-02  6.8651018513123996e-02  6.8897608125495891e-02  6.7334712937680022e-02  6.3990926011739654e-02  5.9069403564321159e-02  5.2938655088494102e-02  4.6077418959936493e-02  3.8990205546224087e-02  3.2123280292703282e-02  2.5807881310735008e-02  2.0241584908564529e-02  1.5501784452527461e-02  1.1576602268576004e-02  8.3991928022951086e-03  5.8767454916733670e-03  3.9109377755822848e-03  2.4100632985869352e-03  1.2945873048430302e-03  4.9820054005607329e-04  -3.3800727751600351e-05  -3.4743506197588606e-04  -4.8334579566836750e-04  -4.8014447635276897e-04  -3.7756899245943240e-04  -2.2091020283190426e-04  -6.4405868166745217e-05  1.2566015554820757e-05  -2.5900311355456438e-05  1.2891864159417463e-04  6.1612951956243386e-04  1.4479007190889258e-03  2.6037446407235895e-03  4.0309597906228309e-03  5.6487748364680108e-03  7.3590265718883798e-03  9.0595927235081891e-03  1.0657626528706870e-02  1.2079730907344859e-02  1.3277498310828294e-02  1.4228233063795961e-02  1.4931781681770437e-02  1.5404902629099351e-02  1.5674547162109788e-02  1.5771012030291919e-02  1.5721428200602156e-02  1.5543670794373996e-02  1.5240624357436042e-02  1.4794833702505710e-02  1.4163850770592798e-02  1.3276901346273873e-02  1.2033610194978901e-02  1.0305201923532788e-02  7.9377800852112549e-03  4.7563242722763951e-03  5.6770783570256930e-04  -4.8378981195355180e-03  -1.1685441188523093e-02  -2.0208998923536003e-02  -3.0636801315187170e-02  -4.3165441031793081e-02  -5.7925849003141544e-02  -7.4947018152553238e-02  -9.4125000645147866e-02  -1.1520521149929423e-01  -1.3778566001646803e-01  -1.6134592528346620e-01  -1.8530028080379118e-01  -2