<?xml version="1.0"?>
<VTKFile type="UnstructuredGrid"  version="0.1"  >
<UnstructuredGrid>
<Piece  NumberOfPoints="1089" NumberOfCells="1024">
<Points>
<DataArray  type="Float64"  NumberOfComponents="3"  format="ascii">0 0 0  0.03125 0 0  0.0625 0 0  0.09375 0 0  0.125 0 0  0.15625 0 0  0.1875 0 0  0.21875 0 0  0.25 0 0  0.28125 0 0  0.3125 0 0  0.34375 0 0  0.375 0 0  0.40625 0 0  0.4375 0 0  0.46875 0 0  0.5 0 0  0.53125 0 0  0.5625 0 0  0.59375 0 0  0.625 0 0  0.65625 0 0  0.6875 0 0  0.71875 0 0  0.75 0 0  0.78125 0 0  0.8125 0 0  0.84375 0 0  0.875 0 0  0.90625 0 0  0.9375 0 0  0.96875 0 0  1 0 0  0 0.03125 0  0.03125 0.03125 0  0.0625 0.03125 0  0.09375 0.03125 0  0.125 0.03125 0  0.15625 0.03125 0  0.1875 0.03125 0  0.21875 0.03125 0  0.25 0.03125 0  0.28125 0.03125 0  0.3125 0.03125 0  0.34375 0.03125 0  0.375 0.03125 0  0.40625 0.03125 0  0.4375 0.03125 0  0.46875 0.03125 0  0.5 0.03125 0  0.53125 0.03125 0  0.5625 0.03125 0  0.59375 0.03125 0  0.625 0.03125 0  0.65625 0.03125 0  0.6875 0.03125 0  0.71875 0.03125 0  0.75 0.03125 0  0.78125 0.03125 0  0.8125 0.03125 0  0.84375 0.03125 0  0.875 0.03125 0  0.90625 0.03125 0  0.9375 0.03125 0  0.96875 0.03125 0  1 0.03125 0  0 0.0625 0  0.03125 0.0625 0  0.0625 0.0625 0  0.09375 0.0625 0  0.125 0.0625 0  0.15625 0.0625 0  0.1875 0.0625 0  0.21875 0.0625 0  0.25 0.0625 0  0.28125 0.0625 0  0.3125 0.0625 0  0.34375 0.0625 0  0.375 0.0625 0  0.40625 0.0625 0  0.4375 0.0625 0  0.46875 0.0625 0  0.5 0.0625 0  0.53125 0.0625 0  0.5625 0.0625 0  0.59375 0.0625 0  0.625 0.0625 0  0.65625 0.0625 0  0.6875 0.0625 0  0.71875 0.0625 0  0.75 0.0625 0  0.78125 0.0625 0  0.8125 0.0625 0  0.84375 0.0625 0  0.875 0.0625 0  0.90625 0.0625 0  0.9375 0.0625 0  0.96875 0.0625 0  1 0.0625 0  0 0.09375 0  0.03125 0.09375 0  0.0625 0.09375 0  0.09375 0.09375 0  0.125 0.09375 0  0.15625 0.09375 0  0.1875 0.09375 0  0.21875 0.09375 0  0.25 0.09375 0  0.28125 0.09375 0  0.3125 0.09375 0  0.34375 0.09375 0  0.375 0.09375 0  0.40625 0.09375 0  0.4375 0.09375 0  0.46875 0.09375 0  0.5 0.09375 0  0.53125 0.09375 0  0.5625 0.09375 0  0.59375 0.09375 0  0.625 0.09375 0  0.65625 0.09375 0  0.6875 0.09375 0  0.71875 0.09375 0  0.75 0.09375 0  0.78125 0.09375 0  0.8125 0.09375 0  0.84375 0.09375 0  0.875 0.09375 0  0.90625 0.09375 0  0.9375 0.09375 0  0.96875 0.09375 0  1 0.09375 0  0 0.125 0  0.03125 0.125 0  0.0625 0.125 0  0.09375 0.125 0  0.125 0.125 0  0.15625 0.125 0  0.1875 0.125 0  0.21875 0.125 0  0.25 0.125 0  0.28125 0.125 0  0.3125 0.125 0  0.34375 0.125 0  0.375 0.125 0  0.40625 0.125 0  0.4375 0.125 0  0.46875 0.125 0  0.5 0.125 0  0.53125 0.125 0  0.5625 0.125 0  0.59375 0.125 0  0.625 0.125 0  0.65625 0.125 0  0.6875 0.125 0  0.71875 0.125 0  0.75 0.125 0  0.78125 0.125 0  0.8125 0.125 0  0.84375 0.125 0  0.875 0.125 0  0.90625 0.125 0  0.9375 0.125 0  0.96875 0.125 0  1 0.125 0  0 0.15625 0  0.03125 0.15625 0  0.0625 0.15625 0  0.09375 0.15625 0  0.125 0.15625 0  0.15625 0.15625 0  0.1875 0.15625 0  0.21875 0.15625 0  0.25 0.15625 0  0.28125 0.15625 0  0.3125 0.15625 0  0.34375 0.15625 0  0.375 0.15625 0  0.40625 0.15625 0  0.4375 0.15625 0  0.46875 0.15625 0  0.5 0.15625 0  0.53125 0.15625 0  0.5625 0.15625 0  0.59375 0.15625 0  0.625 0.15625 0  0.65625 0.15625 0  0.6875 0.15625 0  0.71875 0.15625 0  0.75 0.15625 0  0.78125 0.15625 0  0.8125 0.15625 0  0.84375 0.15625 0  0.875 0.15625 0  0.90625 0.15625 0  0.9375 0.15625 0  0.96875 0.15625 0  1 0.15625 0  0 0.1875 0  0.03125 0.1875 0  0.0625 0.1875 0  0.09375 0.1875 0  0.125 0.1875 0  0.15625 0.1875 0  0.1875 0.1875 0  0.21875 0.1875 0  0.25 0.1875 0  0.28125 0.1875 0  0.3125 0.1875 0  0.34375 0.1875 0  0.375 0.1875 0  0.40625 0.1875 0  0.4375 0.1875 0  0.46875 0.1875 0  0.5 0.1875 0  0.53125 0.1875 0  0.5625 0.1875 0  0.59375 0.1875 0  0.625 0.1875 0  0.65625 0.1875 0  0.6875 0.1875 0  0.71875 0.1875 0  0.75 0.1875 0  0.78125 0.1875 0  0.8125 0.1875 0  0.84375 0.1875 0  0.875 0.1875 0  0.90625 0.1875 0  0.9375 0.1875 0  0.96875 0.1875 0  1 0.1875 0  0 0.21875 0  0.03125 0.21875 0  0.0625 0.21875 0  0.09375 0.21875 0  0.125 0.21875 0  0.15625 0.21875 0  0.1875 0.21875 0  0.21875 0.21875 0  0.25 0.21875 0  0.28125 0.21875 0  0.3125 0.21875 0  0.34375 0.21875 0  0.375 0.21875 0  0.40625 0.21875 0  0.4375 0.21875 0  0.46875 0.21875 0  0.5 0.21875 0  0.53125 0.21875 0  0.5625 0.21875 0  0.59375 0.21875 0  0.625 0.21875 0  0.65625 0.21875 0  0.6875 0.21875 0  0.71875 0.21875 0  0.75 0.21875 0  0.78125 0.21875 0  0.8125 0.21875 0  0.84375 0.21875 0  0.875 0.21875 0  0.90625 0.21875 0  0.9375 0.21875 0  0.96875 0.21875 0  1 0.21875 0  0 0.25 0  0.03125 0.25 0  0.0625 0.25 0  0.09375 0.25 0  0.125 0.25 0  0.15625 0.25 0  0.1875 0.25 0  0.21875 0.25 0  0.25 0.25 0  0.28125 0.25 0  0.3125 0.25 0  0.34375 0.25 0  0.375 0.25 0  0.40625 0.25 0  0.4375 0.25 0  0.46875 0.25 0  0.5 0.25 0  0.53125 0.25 0  0.5625 0.25 0  0.59375 0.25 0  0.625 0.25 0  0.65625 0.25 0  0.6875 0.25 0  0.71875 0.25 0  0.75 0.25 0  0.78125 0.25 0  0.8125 0.25 0  0.84375 0.25 0  0.875 0.25 0  0.90625 0.25 0  0.9375 0.25 0  0.96875 0.25 0  1 0.25 0  0 0.28125 0  0.03125 0.28125 0  0.0625 0.28125 0  0.09375 0.28125 0  0.125 0.28125 0  0.15625 0.28125 0  0.1875 0.28125 0  0.21875 0.28125 0  0.25 0.28125 0  0.28125 0.28125 0  0.3125 0.28125 0  0.34375 0.28125 0  0.375 0.28125 0  0.40625 0.28125 0  0.4375 0.28125 0  0.46875 0.28125 0  0.5 0.28125 0  0.53125 0.28125 0  0.5625 0.28125 0  0.59375 0.28125 0  0.625 0.28125 0  0.65625 0.28125 0  0.6875 0.28125 0  0.71875 0.28125 0  0.75 0.28125 0  0.78125 0.28125 0  0.8125 0.28125 0  0.84375 0.28125 0  0.875 0.28125 0  0.90625 0.28125 0  0.9375 0.28125 0  0.96875 0.28125 0  1 0.28125 0  0 0.3125 0  0.03125 0.3125 0  0.0625 0.3125 0  0.09375 0.3125 0  0.125 0.3125 0  0.15625 0.3125 0  0.1875 0.3125 0  0.21875 0.3125 0  0.25 0.3125 0  0.28125 0.3125 0  0.3125 0.3125 0  0.34375 0.3125 0  0.375 0.3125 0  0.40625 0.3125 0  0.4375 0.3125 0  0.46875 0.3125 0  0.5 0.3125 0  0.53125 0.3125 0  0.5625 0.3125 0  0.59375 0.3125 0  0.625 0.3125 0  0.65625 0.3125 0  0.6875 0.3125 0  0.71875 0.3125 0  0.75 0.3125 0  0.78125 0.3125 0  0.8125 0.3125 0  0.84375 0.3125 0  0.875 0.3125 0  0.90625 0.3125 0  0.9375 0.3125 0  0.96875 0.3125 0  1 0.3125 0  0 0.34375 0  0.03125 0.34375 0  0.0625 0.34375 0  0.09375 0.34375 0  0.125 0.34375 0  0.15625 0.34375 0  0.1875 0.34375 0  0.21875 0.34375 0  0.25 0.34375 0  0.28125 0.34375 0  0.3125 0.34375 0  0.34375 0.34375 0  0.375 0.34375 0  0.40625 0.34375 0  0.4375 0.34375 0  0.46875 0.34375 0  0.5 0.34375 0  0.53125 0.34375 0  0.5625 0.34375 0  0.59375 0.34375 0  0.625 0.34375 0  0.65625 0.34375 0  0.6875 0.34375 0  0.71875 0.34375 0  0.75 0.34375 0  0.78125 0.34375 0  0.8125 0.34375 0  0.84375 0.34375 0  0.875 0.34375 0  0.90625 0.34375 0  0.9375 0.34375 0  0.96875 0.34375 0  1 0.34375 0  0 0.375 0  0.03125 0.375 0  0.0625 0.375 0  0.09375 0.375 0  0.125 0.375 0  0.15625 0.375 0  0.1875 0.375 0  0.21875 0.375 0  0.25 0.375 0  0.28125 0.375 0  0.3125 0.375 0  0.34375 0.375 0  0.375 0.375 0  0.40625 0.375 0  0.4375 0.375 0  0.46875 0.375 0  0.5 0.375 0  0.53125 0.375 0  0.5625 0.375 0  0.59375 0.375 0  0.625 0.375 0  0.65625 0.375 0  0.6875 0.375 0  0.71875 0.375 0  0.75 0.375 0  0.78125 0.375 0  0.8125 0.375 0  0.84375 0.375 0  0.875 0.375 0  0.90625 0.375 0  0.9375 0.375 0  0.96875 0.375 0  1 0.375 0  0 0.40625 0  0.03125 0.40625 0  0.0625 0.40625 0  0.09375 0.40625 0  0.125 0.40625 0  0.15625 0.40625 0  0.1875 0.40625 0  0.21875 0.40625 0  0.25 0.40625 0  0.28125 0.40625 0  0.3125 0.40625 0  0.34375 0.40625 0  0.375 0.40625 0  0.40625 0.40625 0  0.4375 0.40625 0  0.46875 0.40625 0  0.5 0.40625 0  0.53125 0.40625 0  0.5625 0.40625 0  0.59375 0.40625 0  0.625 0.40625 0  0.65625 0.40625 0  0.6875 0.40625 0  0.71875 0.40625 0  0.75 0.40625 0  0.78125 0.40625 0  0.8125 0.40625 0  0.84375 0.40625 0  0.875 0.40625 0  0.90625 0.40625 0  0.9375 0.40625 0  0.96875 0.40625 0  1 0.40625 0  0 0.4375 0  0.03125 0.4375 0  0.0625 0.4375 0  0.09375 0.4375 0  0.125 0.4375 0  0.15625 0.4375 0  0.1875 0.4375 0  0.21875 0.4375 0  0.25 0.4375 0  0.28125 0.4375 0  0.3125 0.4375 0  0.34375 0.4375 0  0.375 0.4375 0  0.40625 0.4375 0  0.4375 0.4375 0  0.46875 0.4375 0  0.5 0.4375 0  0.53125 0.4375 0  0.5625 0.4375 0  0.59375 0.4375 0  0.625 0.4375 0  0.65625 0.4375 0  0.6875 0.4375 0  0.71875 0.4375 0  0.75 0.4375 0  0.78125 0.4375 0  0.8125 0.4375 0  0.84375 0.4375 0  0.875 0.4375 0  0.90625 0.4375 0  0.9375 0.4375 0  0.96875 0.4375 0  1 0.4375 0  0 0.46875 0  0.03125 0.46875 0  0.0625 0.46875 0  0.09375 0.46875 0  0.125 0.46875 0  0.15625 0.46875 0  0.1875 0.46875 0  0.21875 0.46875 0  0.25 0.46875 0  0.28125 0.46875 0  0.3125 0.46875 0  0.34375 0.46875 0  0.375 0.46875 0  0.40625 0.46875 0  0.4375 0.46875 0  0.46875 0.46875 0  0.5 0.46875 0  0.53125 0.46875 0  0.5625 0.46875 0  0.59375 0.46875 0  0.625 0.46875 0  0.65625 0.46875 0  0.6875 0.46875 0  0.71875 0.46875 0  0.75 0.46875 0  0.78125 0.46875 0  0.8125 0.46875 0  0.84375 0.46875 0  0.875 0.46875 0  0.90625 0.46875 0  0.9375 0.46875 0  0.96875 0.46875 0  1 0.46875 0  0 0.5 0  0.03125 0.5 0  0.0625 0.5 0  0.09375 0.5 0  0.125 0.5 0  0.15625 0.5 0  0.1875 0.5 0  0.21875 0.5 0  0.25 0.5 0  0.28125 0.5 0  0.3125 0.5 0  0.34375 0.5 0  0.375 0.5 0  0.40625 0.5 0  0.4375 0.5 0  0.46875 0.5 0  0.5 0.5 0  0.53125 0.5 0  0.5625 0.5 0  0.59375 0.5 0  0.625 0.5 0  0.65625 0.5 0  0.6875 0.5 0  0.71875 0.5 0  0.75 0.5 0  0.78125 0.5 0  0.8125 0.5 0  0.84375 0.5 0  0.875 0.5 0  0.90625 0.5 0  0.9375 0.5 0  0.96875 0.5 0  1 0.5 0  0 0.53125 0  0.03125 0.53125 0  0.0625 0.53125 0  0.09375 0.53125 0  0.125 0.53125 0  0.15625 0.53125 0  0.1875 0.53125 0  0.21875 0.53125 0  0.25 0.53125 0  0.28125 0.53125 0  0.3125 0.53125 0  0.34375 0.53125 0  0.375 0.53125 0  0.40625 0.53125 0  0.4375 0.53125 0  0.46875 0.53125 0  0.5 0.53125 0  0.53125 0.53125 0  0.5625 0.53125 0  0.59375 0.53125 0  0.625 0.53125 0  0.65625 0.53125 0  0.6875 0.53125 0  0.71875 0.53125 0  0.75 0.53125 0  0.78125 0.531
[...]
<PointData  Scalars="u_sol"> 
<DataArray  type="Float64"  Name="u_sol"  format="ascii">-4.0588754769117660e-05  -3.8808984735339615e-05  6.5774470063979058e-04  1.2745467917112934e-03  1.5317482582867387e-03  1.7886856106959863e-03  2.4711045769306617e-03  3.4649275458229606e-03  5.0325351819370421e-03  7.9641891145988061e-03  1.1476666444013930e-02  1.3374759059810119e-02  1.2032620993563819e-02  7.0995404601187934e-03  -7.2573660724321984e-04  -9.9681366008363761e-03  -1.7730677225461639e-02  -2.1182956141407076e-02  -1.9599463227454088e-02  -1.3264268679274877e-02  -3.2650731677968566e-03  7.9150648984942975e-03  1.7322625810724135e-02  2.2596458294582455e-02  2.2838697843868744e-02  1.7790282303103346e-02  1.0312410658060801e-02  4.7938220971637273e-03  1.6407089559063827e-03  1.9927931020325489e-04  -2.0273320153207662e-04  -3.0693280234991220e-04  1.6370472847094644e-05  -4.8280709477192688e-04  2.3990113894706930e-03  8.4380990164410995e-03  1.3357731613100136e-02  1.5173211960408241e-02  1.4730059475221081e-02  1.2877475573622526e-02  8.7837761644727480e-03  -6.9314090560913474e-04  -2.0324793568512939e-02  -5.2699424340246714e-02  -9.5620355915412542e-02  -1.4329327487330110e-01  -1.8877749302693142e-01  -2.2586242526307476e-01  -2.4990983516312582e-01  -2.5866449633813432e-01  -2.5165968317623233e-01  -2.2878674398855056e-01  -1.9104932767039332e-01  -1.4159794249983851e-01  -8.5948719908961427e-02  -3.1775908517779901e-02  1.3094608956285185e-02  4.3538278787016382e-02  5.8970783413062867e-02  5.9723798490531818e-02  4.8375998999241270e-02  3.2748316251929081e-02  1.8795380958054195e-02  8.5383537964068956e-03  2.0806071188846785e-03  -4.1258388008946827e-04  -7.7024909564955173e-04  3.8978518087075436e-03  1.1481355661481027e-02  1.5417483667021687e-02  1.4066647753447983e-02  7.9760201380245869e-03  -4.6155072200603359e-03  -2.9807810317377992e-02  -7.2944229920688816e-02  -1.3205327497384667e-01  -1.9809258041064540e-01  -2.6062499771184755e-01  -3.1243380544414162e-01  -3.5061314147362244e-01  -3.7545865460530292e-01  -3.8888678802994298e-01  -3.9258352184995754e-01  -3.8657920782856214e-01  -3.6987311280512913e-01  -3.4114037213580028e-01  -2.9887183290711272e-01  -2.4293502419709234e-01  -1.7684707943047123e-01  -1.0901766209496148e-01  -5.0359670742170647e-02  -8.1682190591524078e-03  1.8706432322639143e-02  3.2350639426974033e-02  3.2372381363756406e-02  2.3775010992292015e-02  1.3162909931459703e-02  3.9329150149481767e-03  -7.1743147342842291e-04  -9.5292473862156600e-04  4.9200779612777979e-03  1.1445752147634625e-02  9.8846220621444918e-03  3.5523334794969883e-04  -1.8951611146643423e-02  -5.6014843932119834e-02  -1.1488561279256052e-01  -1.8825092340306945e-01  -2.6212083080534115e-01  -3.2496916191632169e-01  -3.7225240046701835e-01  -4.0516428643381502e-01  -4.2728515727305838e-01  -4.4186216531670275e-01  -4.5056052327386348e-01  -4.5393272574798504e-01  -4.5271319936738558e-01  -4.4708541310964006e-01  -4.3538501582343964e-01  -4.1411674646734797e-01  -3.7808479640040521e-01  -3.2244205865511533e-01  -2.4752182778793913e-01  -1.6341662645843180e-01  -8.8135047953531720e-02  -3.6211682380633860e-02  -6.2288915041120562e-03  9.9948367969505177e-03  1.4324108268767021e-02  1.0224436162091998e-02  3.4073989138630285e-03  -6.5895311438861608e-04  -9.1527479992193955e-04  5.0066379071837929e-03  6.2869367028901670e-03  -4.8659060832842846e-03  -2.7954374240023512e-02  -7.0575062181888124e-02  -1.3648492204385018e-01  -2.1504994900295882e-01  -2.8879161614528681e-01  -3.4583731862196937e-01  -3.8389310928861320e-01  -4.0664623210856327e-01  -4.1896169673600681e-01  -4.2446585645760970e-01  -4.2555994480071169e-01  -4.2441346845662442e-01  -4.2314756966593953e-01  -4.2281766218422079e-01  -4.2371618255551796e-01  -4.2595794965078265e-01  -4.2813963346042144e-01  -4.2550617048060402e-01  -4.0865252711283223e-01  -3.6573226467132125e-01  -2.9084945883828089e-01  -1.9428849082807320e-01  -1.0268310375692973e-01  -4.1441635741528808e-02  -1.1585643326027779e-02  1.4277432883356713e-03  4.3808077417509779e-03  1.6612316806065657e-03  -3.2780708349399113e-04  -2.9587011945871023e-04  2.6042626068112241e-03  -5.7466332416422740e-03  -2.9585941798093283e-02  -7.2232183388161411e-02  -1.3817520017990362e-01  -2.1648661711155232e-01  -2.8736158478559087e-01  -3.3783638023510931e-01  -3.6678649654727602e-01  -3.7963827880715451e-01  -3.8252596670520433e-01  -3.8020059861922717e-01  -3.7613832062935959e-01  -3.7264391097179439e-01  -3.7045841917353084e-01  -3.6903371401949447e-01  -3.6807676342408474e-01  -3.6815103998552839e-01  -3.7039223893176376e-01  -3.7652848661638233e-01  -3.8762662183563590e-01  -4.0059805242043001e-01  -4.0372257589589589e-01  -3.7750984481618194e-01  -3.0749681792245426e-01  -2.0272272008159217e-01  -9.9056491631524107e-02  -3.3422911042729382e-02  -7.5379050116178188e-03  1.7789430888100986e-04  7.8021045376907726e-04  -2.0037881267668311e-04  8.7329336776898988e-04  -3.1439854579123441e-03  -2.3714904825026948e-02  -6.2969682781815819e-02  -1.2395389795847350e-01  -1.9878352215887057e-01  -2.6706057730027233e-01  -3.1352842543262766e-01  -3.3671302285694771e-01  -3.4340073866304899e-01  -3.4141633666552923e-01  -3.3697688776731377e-01  -3.3401282527683301e-01  -3.3366312655453534e-01  -3.3482447061495052e-01  -3.3593254513815524e-01  -3.3633243412813690e-01  -3.3590836637892468e-01  -3.3461854850141720e-01  -3.3275719481664545e-01  -3.3141675868676068e-01  -3.3342251293017733e-01  -3.4321872695905237e-01  -3.6216344474527440e-01  -3.7882429258884281e-01  -3.6615004904988058e-01  -3.0004036851556221e-01  -1.8904013021645363e-01  -7.9947342550100067e-02  -1.8992154905649077e-02  -1.4600204664426473e-03  9.1262495433767216e-04  -1.5183376908574827e-04  2.2240360201214340e-03  -1.1190785070808323e-02  -4.5018745378059020e-02  -9.8327548715177029e-02  -1.6717641195626309e-01  -2.3370498415525692e-01  -2.7990012330978431e-01  -3.0167023945454302e-01  -3.0617934350891068e-01  -3.0293553902340886e-01  -2.9937124275933896e-01  -2.9917688226360600e-01  -3.0191542954264217e-01  -3.0526066332393920e-01  -3.0779457903784235e-01  -3.0949194445688000e-01  -3.1058821565903971e-01  -3.1120021913272333e-01  -3.1140269553752159e-01  -3.1097231255521457e-01  -3.0930382429390602e-01  -3.0593602525196895e-01  -3.0276170793794688e-01  -3.0666075473864340e-01  -3.2483894880398134e-01  -3.4787907179025407e-01  -3.4119339854191566e-01  -2.7250050951161198e-01  -1.5507166732462427e-01  -4.9978551399347808e-02  -5.1190124945572173e-03  1.0086238336656276e-03  4.5948027483173704e-06  3.4684070840520667e-03  -1.9550776491815212e-02  -6.5216563290868473e-02  -1.2577534112164127e-01  -1.9023404046733189e-01  -2.3920442108523055e-01  -2.6393864566952224e-01  -2.6965983561235496e-01  -2.6702596804543971e-01  -2.6468246412797669e-01  -2.6624573418437036e-01  -2.7024224384691065e-01  -2.7377713984249802e-01  -2.7593961643919490e-01  -2.7729789580389103e-01  -2.7828264226351829e-01  -2.7910640477215132e-01  -2.7995170788788715e-01  -2.8092871864683283e-01  -2.8221527738812929e-01  -2.8379023715981283e-01  -2.8464958179264582e-01  -2.8248006933005165e-01  -2.7685266503828193e-01  -2.7588777828192579e-01  -2.9239691474833196e-01  -3.1742438186619348e-01  -3.0730150171586634e-01  -2.2699577748509212e-01  -1.0505753710619438e-01  -1.8795239951679643e-02  1.2300632364650220e-03  -5.0939059701689596e-04  4.4254306455385100e-03  -2.6273755486178118e-02  -7.9181499972450678e-02  -1.3868550801652807e-01  -1.9136663511273769e-01  -2.2263141885022991e-01  -2.3294720271904171e-01  -2.3229562869736631e-01  -2.3078721958153611e-01  -2.3295827663061508e-01  -2.3727899506348391e-01  -2.4064833873944491e-01  -2.4251207614138973e-01  -2.4387906246845817e-01  -2.4519525104254225e-01  -2.4646746166921818e-01  -2.4764801067601944e-01  -2.4865349515512067e-01  -2.4950389150989311e-01  -2.5031850961982077e-01  -2.5151410349705128e-01  -2.5382319896218852e-01  -2.5677232331277700e-01  -2.5656207853994650e-01  -2.5016588894054104e-01  -2.4719777718880828e-01  -2.6472660639458018e-01  -2.8811757749964662e-01  -2.6293732651294993e-01  -1.6403266405684588e-01  -4.8561740496791135e-02  8.8463000911903863e-05  -4.5034696650443439e-04  4.9484302816315993e-03  -2.9735125885750901e-02  -8.3920615346877642e-02  -1.3644756752524106e-01  -1.7585056620943507e-01  -1.9405401579876902e-01  -1.9750138537630826e-01  -1.9695832819401407e-01  -1.9902251593902798e-01  -2.0341721810334540e-01  -2.0699916944460769e-01  -2.0905197602074688e-01  -2.1080196100379031e-01  -2.1274100430898099e-01  -2.1468874139844821e-01  -2.1650608127706744e-01  -2.1811115899786410e-01  -2.1952487406500032e-01  -2.2078744587244212e-01  -2.2182903560588602e-01  -2.2245148726910824e-01  -2.2288970810841510e-01  -2.2467014310389216e-01  -2.2836272425085336e-01  -2.2883568813624208e-01  -2.2143492035518286e-01  -2.1980044171491850e-01  -2.4140958687875341e-01  -2.5554171503086398e-01  -2.0226528641455646e-01  -8.7937033805926171e-02  -6.3114483897143544e-03  1.6165604002960014e-03  4.9929765637559730e-03  -2.9286659690047286e-02  -7.9592770984252714e-02  -1.2261915528108834e-01  -1.5072717233024294e-01  -1.6120326109206920e-01  -1.6297566492645860e-01  -1.6480562197510085e-01  -1.6900724233588765e-01  -1.7313335261736904e-01  -1.7572439295123446e-01  -1.7784074418528015e-01  -1.8019357288511970e-01  -1.8249939618392061e-01  -1.8454320756287748e-01  -1.8633698681875085e-01  -1.8799198071460524e-01  -1.8960262060260644e-01  -1.9119781614966302e-01  -1.9284252759547102e-01  -1.9447947041787295e-01  -1.9547669879463697e-01  -1.9550970636239776e-01  -1.9682194001044442e-01  -2.0067891116569844e-01  -1.9993950546854183e-01  -1.9126317572151336e-01  -1.9567864390220943e-01  -2.2004364294239445e-01  -2.0968822077642152e-01  -1.2115223903200222e-01  -2.0196166603973852e-02  5.2232192912026456e-03  4.5738713211737839e-03  -2.5385515348729629e-02  -6.8388927667448238e-02  -1.0184874968405484e-01  -1.2158622649262116e-01  -1.2835307475525129e-01  -1.3077321251107474e-01  -1.3448689596780319e-01  -1.3902571324156929e-01  -1.4241670098460796e-01  -1.4489425701668426e-01  -1.4743565519470866e-01  -1.4995362288587807e-01  -1.5213988528401926e-01  -1.5407322453178790e-01  -1.5591906022891347e-01  -1.5773767149779711e-01  -1.5952772528026168e-01  -1.6128822498693529e-01  -1.6300820623718951e-01  -1.6486732178223021e-01  -1.6704934539809402e-01  -1.6852180469676539e-01  -1.6844410067295196e-01  -1.7003248987996103e-01  -1.7366219012381329e-01  -1.6954634792389059e-01  -1.6220835662437344e-01  -1.7710587343974662e-01  -1.9136742323025877e-01  -1.3814079448568414e-01  -3.5399960120025747e-02  8.8207201499527592e-03  3.7873773274248366e-03  -1.9033903650018356e-02  -5.3009061783208321e-02  -7.7892380329495844e-02  -9.1793340396790837e-02  -9.7088948192987676e-02  -1.0049689061249810e-01  -1.0491119022912675e-01  -1.0903899397287828e-01  -1.1204786106965078e-01  -1.1467949997226659e-01  -1.1730716366304152e-01  -1.1965968703264196e-01  -1.2173546683752094e-01  -1.2375616885676337e-01  -1.2579052585360845e-01  -1.2781560607870499e-01  -1.2983471877115621e-01  -1.3187297482630389e-01  -1.3390842257679481e-01  -1.3577183799050385e-01  -1.3772275367998388e-01  -1.4027376220688537e-01  -1.4184939963366647e-01  -1.4180434153688479e-01  -1.4451157270173404e-01  -1.4627375601442591e-01  -1.3803117078697433e-01  -1.3955426961500783e-01  -1.5955774402778547e-01  -1.3754184882418227e-01  -4.6298253420026012e-02  1.0928677874541753e-02  2.6979920683077863e-03  -1.1361317399157583e-02  -3.5607861482577156e-02  -5.3122802878545351e-02  -6.2848078011143477e-02  -6.7587660374147776e-02  -7.1483381014989772e-02  -7.5781061049222151e-02  -7.9381209472167300e-02  -8.2194753487949315e-02  -8.4808378600440396e-02  -8.7262689406676031e-02  -8.9439127849996788e-02  -9.1508504446934744e-02  -9.3597727816680104e-02  -9.5690062310923168e-02  -9.7804651177758870e-02  -9.9994952236844015e-02  -1.0226641543728576e-01  -1.0465830809536107e-01  -1.0715884740856955e-01  -1.0934506979102779e-01  -1.1159785661478649e-01  -1.1452772189431672e-01  -1.1573658858608157e-01  -1.1644953877787272e-01  -1.2021593860400503e-01  -1.1686952869050567e-01  -1.1044042595338618e-01  -1.2532923004123769e-01  -1.2408772421644071e-01  -5.1238507292263341e-02  1.1247000194399802e-02  1.3835562210095622e-03  -3.1473882046314378e-03  -1.7576778652593238e-02  -2.8668051488484399e-02  -3.5191177924323719e-02  -3.9487479954478252e-02  -4.3344734150557923e-02  -4.7104766590113936e-02  -5.0191272315751857e-02  -5.2760931821101038e-02  -5.5156387380676915e-02  -5.7344308136151448e-02  -5.9364403578514857e-02  -6.1367553276324455e-02  -6.3400599316701389e-02  -6.5484334518903953e-02  -6.7682413255843676e-02  -7.0032908318112624e-02  -7.2558008166127216e-02  -7.5208373651381694e-02  -7.8060965590145442e-02  -8.1143328735849021e-02  -8.3768848542980640e-02  -8.6728977239525620e-02  -8.9888339800581918e-02  -9.0684102702331473e-02  -9.3615131096302887e-02  -9.5278970900367507e-02  -8.7632858514943818e-02  -9.4815684071691386e-02  -1.0438146444932324e-01  -5.0837513639307927e-02  1.0318839791023098e-02  -1.4978514510662858e-04  5.3520146043594605e-03  1.5023138907947753e-04  -4.8387987196267688e-03  -8.6977886841472212e-03  -1.2337031607762785e-02  -1.5823878482077780e-02  -1.8857678813216580e-02  -2.1405591764295812e-02  -2.3614225303169912e-02  -2.5663447925707648e-02  -2.7537348299206118e-02  -2.9341867502930399e-02  -3.1182284850188879e-02  -3.3101118030131681e-02  -3.5165492824682537e-02  -3.7440252074006641e-02  -3.9955794198436284e-02  -4.2722227760772558e-02  -4.5778811185338608e-02  -4.8983019602778483e-02  -5.2494559235807030e-02  -5.6233280476984421e-02  -5.9473904020305925e-02  -6.3575339978966583e-02  -6.6324186730171181e-02  -6.8337533561437361e-02  -7.2857118318947894e-02  -6.8277430415540810e-02  -6.9698405285911591e-02  -8.3542644104452335e-02  -4.6919896196560409e-02  8.8310544655280342e-03  -1.4691448312824495e-03  1.2905481527092101e-02  1.7607423708693906e-02  1.7965619780812160e-02  1.7210989440406395e-02  1.4065458495099074e-02  1.1308213899724801e-02  8.9595094805740988e-03  7.0661787425581792e-03  5.2895618846702129e-03  3.6915866886099154e-03  2.1908353814782547e-03  6.8591057761882622e-04  -9.1249699333407542e-04  -2.6661898393079328e-03  -4.6618845853870078e-03  -6.9562036909777613e-03  -9.5933893264180878e-03  -1.2610118207844157e-02  -1.6003121166255400e-02  -1.9831239884117075e-02  -2.3832495102047865e-02  -2.8348057670949656e-02  -3.2771876095514858e-02  -3.7285976525690136e-02  -4.2232621454090576e-02  -4.4851816044875516e-02  -5.0430967553606994e-02  -5.0472731075436185e-02  -4.9395490839967172e-02  -6.4382230515341490e-02  -4.1332000889521874e-02  7.2801619209565795e-03  -2.9554949384985331e-03  1.8932417366823426e-02  3.4407560933219172e-02  3.9894875017602055e-02  4.2607497622888790e-02  4.0243750878467564e-02  3.8063663033478058e-02  3.6509366129879581e-02  3.5237528089441930e-02  3.4041167762763176e-02  3.2923912411983308e-02  3.1912288368973786e-02  3.0793270202627364e-02  2.9516481253911486e-02  2.8003548890991166e-02  2.6151333264859165e-02  2.3884216451333193e-02  2.1154834506733989e-02  1.7901364053536116e-02  1.4117801116085607e-02  9.8126421413874901e-03  4.9633708056778334e-03  -2.2075916765656775e-04  -5.9720087763644909e-03  -1.1463103881448852e-02  -1.7951040039936177e-02  -2.2648841488254259e-02  -2.8822532471158541e-02  -3.3270092318862299e-02  -3.2731721539076268e-02  -4.7883656174679975e-02  -3.5380135639445469e-02  5.9324139916266221e-03  -4.1779102535161559e-03  2.3221461032431549e-02  4.9855682870617583e-02  6.1193037494625506e-02  6.7465041277599377e-02  6.6700241589938383e-02  6.4651510957847907e-02  6.3936085496923423e-02  6.3314017241208623e-02  6.2766386222987719e-02  6.2218281588658060e-02  6.1732252029956747e-02  6.1127702659257606e-02  6.0250318691560299e-02  5.9047583891065188e-02  5.7403994267712644e-02  5.5216914898630981e-02  5.2408623304925246e-02  4.8938433456482605e-02  4.4758849625330339e-02  3.9914622223213160e-02  3.4308743456272620e-02  2.8105437869881254e-02  2.1281784592618196e-02  1.4113685450835399e-02  6.4302200729955241e-03  -9.6735911058709763e-04  -8.3197273079513231e-03  -1.6364429175492433e-02  -1.8542170878328105e-02  -3.4094396591841228e-02  -2.9848766909214074e-02  4.8127146846481117e-03  -5.0076178528617940e-03  2.5376974496718819e-02  6.2888139012626160e-02  8.1605579079423479e-02  9.1477509019349437e-02  9.3239380781763484e-02  9.1247269770981562e-02  9.0933530598625634e-02  9.1168093410545964e-02  9.1255493451370948e-02  9.1420812156919065e-02  9.1551407325614190e-02  9.1556037164559151e-02  9.1230267286455960e-02  9.0447276271078320e-02  8.9108873405060809e-02  8.7094756222657860e-02  8.4307091927370736e-02  8.0676121171231699e-02  7.6168605606895368e-02  7.0699064318173507e-02  6.4297795497471152e-02  5.7004156497496981e-02  4.8990709844303378e-02  4.0013749584754871e-02  3.0801913448065665e-02  2.0752066487895821e-02  1.1379971915448320e-02  1.5415605929445378e-04  -5.7513485141058654e-03  -2.2808189996110201e-02  -2.5117182938310251e-02  3.7713151840504631e-03  -5.1865736184254019e-03  2.4929968711131237e-02  7.1884805267022248e-02  1.0009650358753029e-01  1.1442861844558902e-01  1.1958637881917668e-01  1.1842240048298831e-01  1.1778679819989547e-01  1.1888283811626538e-01  1.1982797670229696e-01  1.2071817243304052e-01  1.2165808664722128e-01  1.2239879554439972e-01  1.2275848490500102e-01  1.2254440091734564e-01  1.2161772441260751e-01  1.1985361454644559e-01  1.1713635046652224e-01  1.1338265685373383e-01  1.0848706524743199e-01  1.0238705920091946e-01  9.5146357736921872e-02  8.6835146139157368e-02  7.7319254589982553e-02  6.6641639836512681e-02  5.5352211482640593e-02  4.2937221217383796e-02  3.0644578330252279e-02  1.6406866219793346e-02  6.2628478280186200e-03  -1.3579629938646417e-02  -2.1328292912971718e-02  2.7577317174616212e-03  -4.8405768607129160e-03  2.1724151333503344e-02  7.5080863831411326e-02  1.1503684587976115e-01  1.3571804820654365e-01  1.4491597399761483e-01  1.4598303718189651e-01  1.4500965939556329e-01  1.4631626534664133e-01  1.4848712546311502e-01  1.5030829554740044e-01  1.5207384806785954e-01  1.5370335349227826e-01  1.5487853504166643e-01  1.5537059568786382e-01  1.5498292332113059e-01  1.5356527142459839e-01  1.5097762107597440e-01  1.4710499930749502e-01  1.4185705588359171e-01  1.3523521907759681e-01  1.2729849494804188e-01  1.1778582483957506e-01  1.0663241878937418e-01  9.4202572892100087e-02  8.0692072365121076e-02  6.5717615246932454e-02  4.9954928375575101e-02  3.2790743210314575e-02  1.7623077156090832e-02  -5.6949221676046418e-03  -1.8481143696608825e-02  1.8894301732497469e-03  -3.6144821206036139e-03  1.6429131864217440e-02  7.1015133592574414e-02  1.2281665320703658e-01  1.5292430991090009e-01  1.6736586087346203e-01  1.7220308685379590e-01  1.7200028096809156e-01  1.7276158368283515e-01  1.7584438531924065e-01  1.7925049813815555e-01  1.8223308727850937e-01  1.8492334093066115e-01  1.8714388957519643e-01  1.8857377919568166e-01  1.8896690036901631e-01  1.8811376373843020e-01  1.8587583809125502e-01  1.8213183510924580e-01  1.7678968136108661e-01  1.6980247663596593e-01  1.6093532660369234e-01  1.4999284754295678e-01  1.3730413195586685e-01  1.2324373062792177e-01  1.0725853291264642e-01  8.9307011767129282e-02  6.9972226599216578e-02  4.9453111242238466e-02  2.8759604284335390e-02  1.2127172589732570e-03  -1.6439096357450517e-02  1.4215475476064619e-03  -2.5131120565233152e-03  1.0067717551788334e-02  5.9496665082265268e-02  1.2110144405678012e-01  1.6424541903973378e-01  1.8684277143370484e-01  1.9698748185009998e-01  2.0005117961725574e-01  2.0108651495024246e-01  2.0414643019252282e-01  2.0901288827487216e-01  2.1388007808005885e-01  2.1806702405730943e-01  2.2147787516076764e-01  2.2391905704226167e-01  2.2512077058166799e-01