<?xml version="1.0"?>
<VTKFile type="UnstructuredGrid"  version="0.1"  >
<UnstructuredGrid>
<Piece  NumberOfPoints="1089" NumberOfCells="1024">
<Points>
<DataArray  type="Float64"  NumberOfComponents="3"  format="ascii">0 0 0  0.03125 0 0  0.0625 0 0  0.09375 0 0  0.125 0 0  0.15625 0 0  0.1875 0 0  0.21875 0 0  0.25 0 0  0.28125 0 0  0.3125 0 0  0.34375 0 0  0.375 0 0  0.40625 0 0  0.4375 0 0  0.46875 0 0  0.5 0 0  0.53125 0 0  0.5625 0 0  0.59375 0 0  0.625 0 0  0.65625 0 0  0.6875 0 0  0.71875 0 0  0.75 0 0  0.78125 0 0  0.8125 0 0  0.84375 0 0  0.875 0 0  0.90625 0 0  0.9375 0 0  0.96875 0 0  1 0 0  0 0.03125 0  0.03125 0.03125 0  0.0625 0.03125 0  0.09375 0.03125 0  0.125 0.03125 0  0.15625 0.03125 0  0.1875 0.03125 0  0.21875 0.03125 0  0.25 0.03125 0  0.28125 0.03125 0  0.3125 0.03125 0  0.34375 0.03125 0  0.375 0.03125 0  0.40625 0.03125 0  0.4375 0.03125 0  0.46875 0.03125 0  0.5 0.03125 0  0.53125 0.03125 0  0.5625 0.03125 0  0.59375 0.03125 0  0.625 0.03125 0  0.65625 0.03125 0  0.6875 0.03125 0  0.71875 0.03125 0  0.75 0.03125 0  0.78125 0.03125 0  0.8125 0.03125 0  0.84375 0.03125 0  0.875 0.03125 0  0.90625 0.03125 0  0.9375 0.03125 0  0.96875 0.03125 0  1 0.03125 0  0 0.0625 0  0.03125 0.0625 0  0.0625 0.0625 0  0.09375 0.0625 0  0.125 0.0625 0  0.15625 0.0625 0  0.1875 0.0625 0  0.21875 0.0625 0  0.25 0.0625 0  0.28125 0.0625 0  0.3125 0.0625 0  0.34375 0.0625 0  0.375 0.0625 0  0.40625 0.0625 0  0.4375 0.0625 0  0.46875 0.0625 0  0.5 0.0625 0  0.53125 0.0625 0  0.5625 0.0625 0  0.59375 0.0625 0  0.625 0.0625 0  0.65625 0.0625 0  0.6875 0.0625 0  0.71875 0.0625 0  0.75 0.0625 0  0.78125 0.0625 0  0.8125 0.0625 0  0.84375 0.0625 0  0.875 0.0625 0  0.90625 0.0625 0  0.9375 0.0625 0  0.96875 0.0625 0  1 0.0625 0  0 0.09375 0  0.03125 0.09375 0  0.0625 0.09375 0  0.09375 0.09375 0  0.125 0.09375 0  0.15625 0.09375 0  0.1875 0.09375 0  0.21875 0.09375 0  0.25 0.09375 0  0.28125 0.09375 0  0.3125 0.09375 0  0.34375 0.09375 0  0.375 0.09375 0  0.40625 0.09375 0  0.4375 0.09375 0  0.46875 0.09375 0  0.5 0.09375 0  0.53125 0.09375 0  0.5625 0.09375 0  0.59375 0.09375 0  0.625 0.09375 0  0.65625 0.09375 0  0.6875 0.09375 0  0.71875 0.09375 0  0.75 0.09375 0  0.78125 0.09375 0  0.8125 0.09375 0  0.84375 0.09375 0  0.875 0.09375 0  0.90625 0.09375 0  0.9375 0.09375 0  0.96875 0.09375 0  1 0.09375 0  0 0.125 0  0.03125 0.125 0  0.0625 0.125 0  0.09375 0.125 0  0.125 0.125 0  0.15625 0.125 0  0.1875 0.125 0  0.21875 0.125 0  0.25 0.125 0  0.28125 0.125 0  0.3125 0.125 0  0.34375 0.125 0  0.375 0.125 0  0.40625 0.125 0  0.4375 0.125 0  0.46875 0.125 0  0.5 0.125 0  0.53125 0.125 0  0.5625 0.125 0  0.59375 0.125 0  0.625 0.125 0  0.65625 0.125 0  0.6875 0.125 0  0.71875 0.125 0  0.75 0.125 0  0.78125 0.125 0  0.8125 0.125 0  0.84375 0.125 0  0.875 0.125 0  0.90625 0.125 0  0.9375 0.125 0  0.96875 0.125 0  1 0.125 0  0 0.15625 0  0.03125 0.15625 0  0.0625 0.15625 0  0.09375 0.15625 0  0.125 0.15625 0  0.15625 0.15625 0  0.1875 0.15625 0  0.21875 0.15625 0  0.25 0.15625 0  0.28125 0.15625 0  0.3125 0.15625 0  0.34375 0.15625 0  0.375 0.15625 0  0.40625 0.15625 0  0.4375 0.15625 0  0.46875 0.15625 0  0.5 0.15625 0  0.53125 0.15625 0  0.5625 0.15625 0  0.59375 0.15625 0  0.625 0.15625 0  0.65625 0.15625 0  0.6875 0.15625 0  0.71875 0.15625 0  0.75 0.15625 0  0.78125 0.15625 0  0.8125 0.15625 0  0.84375 0.15625 0  0.875 0.15625 0  0.90625 0.15625 0  0.9375 0.15625 0  0.96875 0.15625 0  1 0.15625 0  0 0.1875 0  0.03125 0.1875 0  0.0625 0.1875 0  0.09375 0.1875 0  0.125 0.1875 0  0.15625 0.1875 0  0.1875 0.1875 0  0.21875 0.1875 0  0.25 0.1875 0  0.28125 0.1875 0  0.3125 0.1875 0  0.34375 0.1875 0  0.375 0.1875 0  0.40625 0.1875 0  0.4375 0.1875 0  0.46875 0.1875 0  0.5 0.1875 0  0.53125 0.1875 0  0.5625 0.1875 0  0.59375 0.1875 0  0.625 0.1875 0  0.65625 0.1875 0  0.6875 0.1875 0  0.71875 0.1875 0  0.75 0.1875 0  0.78125 0.1875 0  0.8125 0.1875 0  0.84375 0.1875 0  0.875 0.1875 0  0.90625 0.1875 0  0.9375 0.1875 0  0.96875 0.1875 0  1 0.1875 0  0 0.21875 0  0.03125 0.21875 0  0.0625 0.21875 0  0.09375 0.21875 0  0.125 0.21875 0  0.15625 0.21875 0  0.1875 0.21875 0  0.21875 0.21875 0  0.25 0.21875 0  0.28125 0.21875 0  0.3125 0.21875 0  0.34375 0.21875 0  0.375 0.21875 0  0.40625 0.21875 0  0.4375 0.21875 0  0.46875 0.21875 0  0.5 0.21875 0  0.53125 0.21875 0  0.5625 0.21875 0  0.59375 0.21875 0  0.625 0.21875 0  0.65625 0.21875 0  0.6875 0.21875 0  0.71875 0.21875 0  0.75 0.21875 0  0.78125 0.21875 0  0.8125 0.21875 0  0.84375 0.21875 0  0.875 0.21875 0  0.90625 0.21875 0  0.9375 0.21875 0  0.96875 0.21875 0  1 0.21875 0  0 0.25 0  0.03125 0.25 0  0.0625 0.25 0  0.09375 0.25 0  0.125 0.25 0  0.15625 0.25 0  0.1875 0.25 0  0.21875 0.25 0  0.25 0.25 0  0.28125 0.25 0  0.3125 0.25 0  0.34375 0.25 0  0.375 0.25 0  0.40625 0.25 0  0.4375 0.25 0  0.46875 0.25 0  0.5 0.25 0  0.53125 0.25 0  0.5625 0.25 0  0.59375 0.25 0  0.625 0.25 0  0.65625 0.25 0  0.6875 0.25 0  0.71875 0.25 0  0.75 0.25 0  0.78125 0.25 0  0.8125 0.25 0  0.84375 0.25 0  0.875 0.25 0  0.90625 0.25 0  0.9375 0.25 0  0.96875 0.25 0  1 0.25 0  0 0.28125 0  0.03125 0.28125 0  0.0625 0.28125 0  0.09375 0.28125 0  0.125 0.28125 0  0.15625 0.28125 0  0.1875 0.28125 0  0.21875 0.28125 0  0.25 0.28125 0  0.28125 0.28125 0  0.3125 0.28125 0  0.34375 0.28125 0  0.375 0.28125 0  0.40625 0.28125 0  0.4375 0.28125 0  0.46875 0.28125 0  0.5 0.28125 0  0.53125 0.28125 0  0.5625 0.28125 0  0.59375 0.28125 0  0.625 0.28125 0  0.65625 0.28125 0  0.6875 0.28125 0  0.71875 0.28125 0  0.75 0.28125 0  0.78125 0.28125 0  0.8125 0.28125 0  0.84375 0.28125 0  0.875 0.28125 0  0.90625 0.28125 0  0.9375 0.28125 0  0.96875 0.28125 0  1 0.28125 0  0 0.3125 0  0.03125 0.3125 0  0.0625 0.3125 0  0.09375 0.3125 0  0.125 0.3125 0  0.15625 0.3125 0  0.1875 0.3125 0  0.21875 0.3125 0  0.25 0.3125 0  0.28125 0.3125 0  0.3125 0.3125 0  0.34375 0.3125 0  0.375 0.3125 0  0.40625 0.3125 0  0.4375 0.3125 0  0.46875 0.3125 0  0.5 0.3125 0  0.53125 0.3125 0  0.5625 0.3125 0  0.59375 0.3125 0  0.625 0.3125 0  0.65625 0.3125 0  0.6875 0.3125 0  0.71875 0.3125 0  0.75 0.3125 0  0.78125 0.3125 0  0.8125 0.3125 0  0.84375 0.3125 0  0.875 0.3125 0  0.90625 0.3125 0  0.9375 0.3125 0  0.96875 0.3125 0  1 0.3125 0  0 0.34375 0  0.03125 0.34375 0  0.0625 0.34375 0  0.09375 0.34375 0  0.125 0.34375 0  0.15625 0.34375 0  0.1875 0.34375 0  0.21875 0.34375 0  0.25 0.34375 0  0.28125 0.34375 0  0.3125 0.34375 0  0.34375 0.34375 0  0.375 0.34375 0  0.40625 0.34375 0  0.4375 0.34375 0  0.46875 0.34375 0  0.5 0.34375 0  0.53125 0.34375 0  0.5625 0.34375 0  0.59375 0.34375 0  0.625 0.34375 0  0.65625 0.34375 0  0.6875 0.34375 0  0.71875 0.34375 0  0.75 0.34375 0  0.78125 0.34375 0  0.8125 0.34375 0  0.84375 0.34375 0  0.875 0.34375 0  0.90625 0.34375 0  0.9375 0.34375 0  0.96875 0.34375 0  1 0.34375 0  0 0.375 0  0.03125 0.375 0  0.0625 0.375 0  0.09375 0.375 0  0.125 0.375 0  0.15625 0.375 0  0.1875 0.375 0  0.21875 0.375 0  0.25 0.375 0  0.28125 0.375 0  0.3125 0.375 0  0.34375 0.375 0  0.375 0.375 0  0.40625 0.375 0  0.4375 0.375 0  0.46875 0.375 0  0.5 0.375 0  0.53125 0.375 0  0.5625 0.375 0  0.59375 0.375 0  0.625 0.375 0  0.65625 0.375 0  0.6875 0.375 0  0.71875 0.375 0  0.75 0.375 0  0.78125 0.375 0  0.8125 0.375 0  0.84375 0.375 0  0.875 0.375 0  0.90625 0.375 0  0.9375 0.375 0  0.96875 0.375 0  1 0.375 0  0 0.40625 0  0.03125 0.40625 0  0.0625 0.40625 0  0.09375 0.40625 0  0.125 0.40625 0  0.15625 0.40625 0  0.1875 0.40625 0  0.21875 0.40625 0  0.25 0.40625 0  0.28125 0.40625 0  0.3125 0.40625 0  0.34375 0.40625 0  0.375 0.40625 0  0.40625 0.40625 0  0.4375 0.40625 0  0.46875 0.40625 0  0.5 0.40625 0  0.53125 0.40625 0  0.5625 0.40625 0  0.59375 0.40625 0  0.625 0.40625 0  0.65625 0.40625 0  0.6875 0.40625 0  0.71875 0.40625 0  0.75 0.40625 0  0.78125 0.40625 0  0.8125 0.40625 0  0.84375 0.40625 0  0.875 0.40625 0  0.90625 0.40625 0  0.9375 0.40625 0  0.96875 0.40625 0  1 0.40625 0  0 0.4375 0  0.03125 0.4375 0  0.0625 0.4375 0  0.09375 0.4375 0  0.125 0.4375 0  0.15625 0.4375 0  0.1875 0.4375 0  0.21875 0.4375 0  0.25 0.4375 0  0.28125 0.4375 0  0.3125 0.4375 0  0.34375 0.4375 0  0.375 0.4375 0  0.40625 0.4375 0  0.4375 0.4375 0  0.46875 0.4375 0  0.5 0.4375 0  0.53125 0.4375 0  0.5625 0.4375 0  0.59375 0.4375 0  0.625 0.4375 0  0.65625 0.4375 0  0.6875 0.4375 0  0.71875 0.4375 0  0.75 0.4375 0  0.78125 0.4375 0  0.8125 0.4375 0  0.84375 0.4375 0  0.875 0.4375 0  0.90625 0.4375 0  0.9375 0.4375 0  0.96875 0.4375 0  1 0.4375 0  0 0.46875 0  0.03125 0.46875 0  0.0625 0.46875 0  0.09375 0.46875 0  0.125 0.46875 0  0.15625 0.46875 0  0.1875 0.46875 0  0.21875 0.46875 0  0.25 0.46875 0  0.28125 0.46875 0  0.3125 0.46875 0  0.34375 0.46875 0  0.375 0.46875 0  0.40625 0.46875 0  0.4375 0.46875 0  0.46875 0.46875 0  0.5 0.46875 0  0.53125 0.46875 0  0.5625 0.46875 0  0.59375 0.46875 0  0.625 0.46875 0  0.65625 0.46875 0  0.6875 0.46875 0  0.71875 0.46875 0  0.75 0.46875 0  0.78125 0.46875 0  0.8125 0.46875 0  0.84375 0.46875 0  0.875 0.46875 0  0.90625 0.46875 0  0.9375 0.46875 0  0.96875 0.46875 0  1 0.46875 0  0 0.5 0  0.03125 0.5 0  0.0625 0.5 0  0.09375 0.5 0  0.125 0.5 0  0.15625 0.5 0  0.1875 0.5 0  0.21875 0.5 0  0.25 0.5 0  0.28125 0.5 0  0.3125 0.5 0  0.34375 0.5 0  0.375 0.5 0  0.40625 0.5 0  0.4375 0.5 0  0.46875 0.5 0  0.5 0.5 0  0.53125 0.5 0  0.5625 0.5 0  0.59375 0.5 0  0.625 0.5 0  0.65625 0.5 0  0.6875 0.5 0  0.71875 0.5 0  0.75 0.5 0  0.78125 0.5 0  0.8125 0.5 0  0.84375 0.5 0  0.875 0.5 0  0.90625 0.5 0  0.9375 0.5 0  0.96875 0.5 0  1 0.5 0  0 0.53125 0  0.03125 0.53125 0  0.0625 0.53125 0  0.09375 0.53125 0  0.125 0.53125 0  0.15625 0.53125 0  0.1875 0.53125 0  0.21875 0.53125 0  0.25 0.53125 0  0.28125 0.53125 0  0.3125 0.53125 0  0.34375 0.53125 0  0.375 0.53125 0  0.40625 0.53125 0  0.4375 0.53125 0  0.46875 0.53125 0  0.5 0.53125 0  0.53125 0.53125 0  0.5625 0.53125 0  0.59375 0.53125 0  0.625 0.53125 0  0.65625 0.53125 0  0.6875 0.53125 0  0.71875 0.53125 0  0.75 0.53125 0  0.78125 0.531
[...]
<PointData  Scalars="v_sol"> 
<DataArray  type="Float64"  Name="v_sol"  format="ascii">2.7616893981181784e-05  4.6928267458463382e-04  6.0009447069639908e-04  3.5921600258436391e-04  1.0533428592939120e-04  -2.1114035525160950e-05  -9.3777556331629236e-05  -2.0025332203082175e-04  -6.3843187612368333e-04  -1.7115745003893716e-03  -3.1693037831514474e-03  -4.4173510839847453e-03  -4.9454706495367790e-03  -4.5974737986212450e-03  -3.4389711885200597e-03  -1.8192133119228804e-03  -9.8226796642399120e-05  1.8501214136428588e-03  3.4276004633092402e-03  4.6376148165623004e-03  5.2948736448878231e-03  5.3072620238331153e-03  4.6495621674364869e-03  3.4589907670148257e-03  2.0064362781155903e-03  3.4252963780059169e-04  -1.2673188611055336e-03  -1.9824505162657816e-03  -1.7124139511875487e-03  -1.2461352418508861e-03  -7.6802936187211695e-04  -3.9316672296849765e-04  -4.1010707168079624e-06  1.1883470348273759e-04  -2.4970541247870026e-03  -3.2396482319436513e-03  -1.8337444922102285e-03  -4.3027866922898861e-04  4.7425278752698428e-05  2.6856891169649077e-04  1.1458670055220187e-03  3.3452154947150887e-03  7.7385787046130652e-03  1.4038267954027264e-02  2.0113959661536583e-02  2.3742108851591549e-02  2.3845462239628700e-02  2.0362804424236058e-02  1.3659032200740818e-02  4.2420276319069987e-03  -6.5544360649172091e-03  -1.6896380289217083e-02  -2.5770578052280151e-02  -3.1303174904057471e-02  -3.1843044608954832e-02  -2.6990290640473050e-02  -1.8174738264698429e-02  -7.9654214418286469e-03  1.8278403903736790e-03  8.4942419685932885e-03  1.0313656397113289e-02  8.6959620858462344e-03  6.0180342263951702e-03  3.7738881481957851e-03  1.8616506647042101e-03  -1.9043961763821516e-04  -3.7300104910441566e-04  -9.0082138353463972e-03  -9.8212267088792545e-03  -4.6384307551550112e-03  8.0494489360927873e-04  4.2903081351724466e-03  9.0739395944430465e-03  1.9247106173493855e-02  3.5518920781292755e-02  5.4228972571623353e-02  6.9237278848950215e-02  7.5999369565358910e-02  7.3317569186139686e-02  6.2506858170595064e-02  4.5845582856460960e-02  2.5454460272489703e-02  2.9328565301736270e-03  -2.0846211571167839e-02  -4.5112771390471158e-02  -6.7617290249786868e-02  -8.5064538757619532e-02  -9.3011711865742475e-02  -8.7837363100524452e-02  -6.9757663451997368e-02  -4.4374185719230658e-02  -1.9524791719817129e-02  1.2812110028598070e-03  1.5639693534319387e-02  2.0719256834144630e-02  1.8470768185421631e-02  1.3691901744306456e-02  8.3419236611699601e-03  3.9595421038437600e-04  -1.3976986582497522e-03  -1.7176300853348706e-02  -1.4876961665753873e-02  -2.6892919124104418e-03  8.8787259664275774e-03  2.0869485865049820e-02  4.1168176044476902e-02  7.1109513004055588e-02  1.0235969176488337e-01  1.2454470907245282e-01  1.3224264245207307e-01  1.2596233313942831e-01  1.0946653166493207e-01  8.6835284457197195e-02  6.0911259061861268e-02  3.3025734236535625e-02  3.4297476487721700e-03  -2.7827418643323620e-02  -6.0371907762813641e-02  -9.3558228785292019e-02  -1.2485571053289038e-01  -1.4895768089557526e-01  -1.5810076500156517e-01  -1.4555141423090420e-01  -1.1171327310657739e-01  -6.7477737041152688e-02  -2.8104956571576818e-02  1.8550720058701866e-04  1.7938969993276790e-02  2.4369624778963459e-02  2.2258785970504687e-02  1.5782272643745310e-02  1.2430027239855679e-03  -3.2496214633588867e-03  -2.5115243602961745e-02  -1.4030500148137186e-02  8.1430566626121709e-03  3.0470478437499469e-02  6.1386074463939649e-02  1.0425276723399922e-01  1.4733585294476539e-01  1.7605014107887659e-01  1.8433933400106478e-01  1.7491497731837724e-01  1.5398847819148309e-01  1.2701985387677950e-01  9.7328728216977384e-02  6.6489057305870319e-02  3.5135232297967105e-02  3.4466251480549611e-03  -2.8924042054445532e-02  -6.2908966360656737e-02  -9.9152362562516583e-02  -1.3757022215485057e-01  -1.7588339848189707e-01  -2.0729568903393925e-01  -2.1985113297124070e-01  -2.0154969723158356e-01  -1.5121897543586083e-01  -8.5689200975072974e-02  -3.0630283187534722e-02  3.0488039631052623e-03  2.0709505781210072e-02  2.5821797110396460e-02  2.0696297913073498e-02  1.7349259570916605e-03  -6.1716953121349694e-03  -2.8689075426158610e-02  -3.2667813620686878e-03  3.1848598996415137e-02  7.3433490230478363e-02  1.2785698115797714e-01  1.8291377286429855e-01  2.1940225750311931e-01  2.2942173563418494e-01  2.1752751806206352e-01  1.9247720143526462e-01  1.6135003187224267e-01  1.2834341461748314e-01  9.5545993967782433e-02  6.3753012919472121e-02  3.2878692509921995e-02  2.2377567775451949e-03  -2.8916424735200251e-02  -6.0949706372803752e-02  -9.4458986260854708e-02  -1.3053693021607871e-01  -1.7049168783328575e-01  -2.1388967843765760e-01  -2.5374585064887850e-01  -2.7299255398272376e-01  -2.5134882386322827e-01  -1.8404654191566508e-01  -9.5575148911141480e-02  -2.5563064337662665e-02  1.0323348968746255e-02  2.4579143087699037e-02  2.2699943237656003e-02  1.9284162125811624e-03  -9.2290250587159142e-03  -2.2925176730034108e-02  1.9592371801241317e-02  7.2741693586211631e-02  1.3726488287877367e-01  2.0481899727946171e-01  2.5236930909113314e-01  2.6740878340344515e-01  2.5503975818931168e-01  2.2697777352781454e-01  1.9272674934267753e-01  1.5786206660220564e-01  1.2474011265832848e-01  9.3464903663110513e-02  6.3057611051168125e-02  3.2543279791650316e-02  1.5614059953014900e-03  -2.9834647504489952e-02  -6.1640673984205779e-02  -9.3732128309472862e-02  -1.2612135111325301e-01  -1.5983859945356205e-01  -1.9793933818548423e-01  -2.4363498327301103e-01  -2.9146536148404290e-01  -3.1802046689446450e-01  -2.9144046510554072e-01  -2.0320109944090714e-01  -9.0674557054087043e-02  -1.1340979032814821e-02  1.9499735095531292e-02  2.3652173141097011e-02  2.2054659652417899e-03  -1.0021085896284778e-02  -4.9031784787017538e-03  5.6020612251990266e-02  1.2995215023333451e-01  2.0965183789622210e-01  2.7247300555343906e-01  2.9835014677151572e-01  2.8939305721989095e-01  2.6034129540661882e-01  2.2429675911252472e-01  1.8881937834286952e-01  1.5639952695897205e-01  1.2601740249425214e-01  9.5858665147044941e-02  6.5093481488512836e-02  3.3788646945661437e-02  2.0822672827770796e-03  -3.0083125651541875e-02  -6.2707448406991675e-02  -9.5683014520335605e-02  -1.2851950769925360e-01  -1.6030436460525482e-01  -1.9111794707782684e-01  -2.2543901422539703e-01  -2.7156655457342510e-01  -3.2648636315534713e-01  -3.5736327006019042e-01  -3.1765739868640325e-01  -2.0001571828810877e-01  -6.5819380676955211e-02  8.7841704280515916e-03  2.3544697627571675e-02  3.6194557533686484e-03  -6.9894789894590012e-03  2.6188551151304872e-02  1.0477242388229377e-01  1.9528095058508335e-01  2.7579542863131318e-01  3.2008348823866339e-01  3.2110630781364857e-01  2.9411917699305817e-01  2.5731009636361640e-01  2.2143652878996942e-01  1.8961393671233631e-01  1.5980508792940204e-01  1.2948576641971724e-01  9.8248361099111253e-02  6.6651185403041269e-02  3.4897537709159807e-02  2.9208405417828088e-03  -2.9333052455128298e-02  -6.1981008863218660e-02  -9.5160915992024406e-02  -1.2899433030678051e-01  -1.6306077135379266e-01  -1.9540961492324835e-01  -2.2414764970551082e-01  -2.5482345154271852e-01  -3.0220468085386054e-01  -3.6405565637326093e-01  -3.9107630131712212e-01  -3.2164661380463772e-01  -1.6495650968204587e-01  -2.2988616280040571e-02  2.3291351318657255e-02  4.6537866963379535e-03  -5.2935239155370008e-05  6.8688641840876530e-02  1.6065636031869596e-01  2.5848668060072461e-01  3.2716788892751675e-01  3.4782367334365843e-01  3.2857801181110274e-01  2.9218424431247186e-01  2.5536968612129823e-01  2.2336992162316863e-01  1.9377536465173809e-01  1.6320897168577719e-01  1.3146673619984064e-01  9.9589144567999263e-02  6.7768260492980389e-02  3.5873465798073170e-02  3.8390165851485982e-03  -2.8455104383852195e-02  -6.1025722174329347e-02  -9.3839335993354006e-02  -1.2702006131791022e-01  -1.6113416437557784e-01  -1.9642199328493817e-01  -2.2994739416607521e-01  -2.5713131746153445e-01  -2.8575850088324511e-01  -3.3866277017598606e-01  -4.0643987721515840e-01  -4.1176585064786542e-01  -2.8819138391112886e-01  -9.3578604212207026e-02  1.8671729431498783e-02  5.7614989819782187e-03  9.7549643666683325e-03  1.1828093879098171e-01  2.1691491038680094e-01  3.1264700972948861e-01  3.6280038668361930e-01  3.6156268273098091e-01  3.2942925542966184e-01  2.9092186734423015e-01  2.5752018933703358e-01  2.2777105105000492e-01  1.9720972334898731e-01  1.6513526754547722e-01  1.3304097102505760e-01  1.0123766743562806e-01  6.9395289097653523e-02  3.7402319461666514e-02  5.1580211522882606e-03  -2.7342691145511484e-02  -6.0100133243384271e-02  -9.3109326329400929e-02  -1.2615758947915909e-01  -1.5911858154890368e-01  -1.9312453302064658e-01  -2.2954724332078977e-01  -2.6389352671693206e-01  -2.8882885477247106e-01  -3.1908824046005840e-01  -3.8480213017692155e-01  -4.4914276044816243e-01  -3.9888278112266268e-01  -1.9924489175572241e-01  -5.4197509410848881e-03  1.2996003457599331e-02  2.0463172089298008e-02  1.6938112851805290e-01  2.6812011449336087e-01  3.5544833183990254e-01  3.8598534468082835e-01  3.6783022622531281e-01  3.2954690889902005e-01  2.9275429473299452e-01  2.6192784375662292e-01  2.3164288455240784e-01  1.9947830280272516e-01  1.6707626480460150e-01  1.3521166280675334e-01  1.0337093831644487e-01  7.1341252120550286e-02  3.9125759290544120e-02  6.7322295057458664e-03  -2.5851231439529530e-02  -5.8669896734436087e-02  -9.1803421258634263e-02  -1.2534092252415771e-01  -1.5885196040777935e-01  -1.9167364734770578e-01  -2.2576647939183003e-01  -2.6364843823089179e-01  -2.9717898753588728e-01  -3.1892679997525669e-01  -3.5985069623125165e-01  -4.4308054997623553e-01  -4.7103263061331385e-01  -3.1713288134383255e-01  -5.8929143000743311e-02  2.5065225200777700e-02  2.9928358492264287e-02  2.1671096555532590e-01  3.1136069770162561e-01  3.8759735210389690e-01  4.0095533276417222e-01  3.7134162199103260e-01  3.3132318738388200e-01  2.9676412528701152e-01  2.6638025613879601e-01  2.3459406937113350e-01  2.0173221856021056e-01  1.6954436120730043e-01  1.3762537034113351e-01  1.0548084674512773e-01  7.3205523152214944e-02  4.0870108737355207e-02  8.4349517935319619e-03  -2.4170658925252390e-02  -5.7001161320957686e-02  -9.0048037119414837e-02  -1.2344215285665988e-01  -1.5756133997975877e-01  -1.9167143073689272e-01  -2.2446780943464542e-01  -2.5964265138884018e-01  -2.9924363500807349e-01  -3.2829231953031129e-01  -3.5059154117970442e-01  -4.1857877967739038e-01  -5.0035116029476812e-01  -4.2244801892792272e-01  -1.3874614147467948e-01  3.4743339509620309e-02  3.6412607896321725e-02  2.5633193707749263e-01  3.4575865515842186e-01  4.1096006376080896e-01  4.1110166932789272e-01  3.7453024089665360e-01  3.3472357294469468e-01  3.0139447115247403e-01  2.7019220908545966e-01  2.3726928326801455e-01  2.0430521421492429e-01  1.7213887567143704e-01  1.3989279855406514e-01  1.0748747809888842e-01  7.5152208352838382e-02  4.2811085167915881e-02  1.0352776333439010e-02  -2.2270822531263081e-02  -5.5116015322784755e-02  -8.8247290780549992e-02  -1.2155230414893306e-01  -1.5521237742347252e-01  -1.9004997602274001e-01  -2.2461521801275947e-01  -2.5761107848234821e-01  -2.9581963523568394e-01  -3.3489490663363569e-01  -3.5577283822082612e-01  -3.9747353108014050e-01  -4.9817043452483473e-01  -5.0098504714343461e-01  -2.3375872306747394e-01  3.7882711194298917e-02  3.8929401746225493e-02  2.8578365019727958e-01  3.7155371096914558e-01  4.2736161758946739e-01  4.1854206926332832e-01  3.7810705822587137e-01  3.3886776642286709e-01  3.0575903478100136e-01  2.7349077422106205e-01  2.3993934205452325e-01  2.0694126653217126e-01  1.7455979135383529e-01  1.4201723015244017e-01  1.0954123878992726e-01  7.7228585313784223e-02  4.4882337972192356e-02  1.2440660412899604e-02  -2.0139412324729766e-02  -5.2922721970706431e-02  -8.6001696252864676e-02  -1.1951546418789651e-01  -1.5315691211362756e-01  -1.8729298125013957e-01  -2.2311538879445536e-01  -2.5761168849811622e-01  -2.9221505858617547e-01  -3.3492809192280609e-01  -3.6557058360502404e-01  -3.8877578712180255e-01  -4.8074953228565898e-01  -5.5016216411672014e-01  -3.3067167613333898e-01  3.2696648039669776e-02  3.7356692450810081e-02  3.0366091107593474e-01  3.8939361264520517e-01  4.3814858998346679e-01  4.2432547990111180e-01  3.8193033731458464e-01  3.4298031588123290e-01  3.0955049739851881e-01  2.7641609098921405e-01  2.4251116775104695e-01  2.0939023731347442e-01  1.7675247930832622e-01  1.4406129976095028e-01  1.1159934086683491e-01  7.9304539172080080e-02  4.6993272553161748e-02  1.4646656831054211e-02  -1.7805116617915673e-02  -5.0471715072655139e-02  -8.3401271079249453e-02  -1.1673935005771302e-01  -1.5073651446449349e-01  -1.8477690729646346e-01  -2.1991681928605555e-01  -2.5670680221333375e-01  -2.9075842195462681e-01  -3.3092513634466353e-01  -3.7231812039274448e-01  -3.9083515057959672e-01  -4.6079092929277743e-01  -5.7460295692043206e-01  -4.1954367249187474e-01  1.9971418149806030e-02  3.1495691431493451e-02  3.0972296281095635e-01  3.9966268427720375e-01  4.4432721648382928e-01  4.2869319599998984e-01  3.8570501677593277e-01  3.4657886472994770e-01  3.1269591122042434e-01  2.7895244560813720e-01  2.4482231975754257e-01  2.1152531921049961e-01  1.7870329368876153e-01  1.4597261978554615e-01  1.1354965673528392e-01  8.1319976200809302e-02  4.9142606435700259e-02  1.6981679662340109e-02  -1.5267831480370911e-02  -4.7713492635167269e-02  -8.0483200036681996e-02  -1.1360013733922283e-01  -1.4731507405800517e-01  -1.8188292008468368e-01  -2.1645906301419651e-01  -2.5345364337507426e-01  -2.9003511709952423e-01  -3.2642146344310935e-01  -3.7331148938512432e-01  -3.9795494585309799e-01  -4.4459731761077631e-01  -5.8131150248048569e-01  -4.9538500910234295e-01  2.1771837654090283e-03  2.1925287818821290e-02  3.0377109278417536e-01  4.0302713501648485e-01  4.4589719272635137e-01  4.3189788224806747e-01  3.8901131313237447e-01  3.4953989169698335e-01  3.1510444191449172e-01  2.8104814576888182e-01  2.4673130521718090e-01  2.1328024701973627e-01  1.8035756425827390e-01  1.4765842378770930e-01  1.1532248758914498e-01  8.3245868055478636e-02  5.1298360284178994e-02  1.9411400462215116e-02  -1.2533933929351794e-02  -4.4659044975528840e-02  -7.7084207518791206e-02  -1.1000422903150842e-01  -1.4337777024304671e-01  -1.7772442425913115e-01  -2.1280575574533239e-01  -2.4865624716813439e-01  -2.8758293592503964e-01  -3.2299244062733634e-01  -3.6919635692834907e-01  -4.0489936860472531e-01  -4.3352702582861607e-01  -5.7639591445992777e-01  -5.5711230715270066e-01  -1.8026866976497753e-02  1.1143791487945601e-02  2.8512537391569009e-01  3.9978948165846545e-01  4.4270588381394976e-01  4.3372112026492204e-01  3.9181558391123072e-01  3.5174148435548375e-01  3.1681064833672012e-01  2.8257227065054102e-01  2.4817855591863763e-01  2.1456196956975257e-01  1.8163391212885882e-01  1.4903242867757779e-01  1.1684751234611561e-01  8.5016526930309019e-02  5.3397511624186385e-02  2.1886365847944032e-02  -9.6301042586796910e-03  -4.1296252733375775e-02  -7.3267407150044525e-02  -1.0570686019144963e-01  -1.3882126265674916e-01  -1.7262591322932910e-01  -2.0785856807899591e-01  -2.4333370036237273e-01  -2.8230252460869271e-01  -3.1980966145335538e-01  -3.6198884198864345e-01  -4.0819262436478121e-01  -4.2645666029399382e-01  -5.6398722510260302e-01  -6.0587403030781073e-01  -3.8513777851925564e-02  1.1267163181724121e-03  2.5453013654987405e-01  3.8863835983579109e-01  4.3537818967885145e-01  4.3299439308584259e-01  3.9446772871898478e-01  3.5313815573392077e-01  3.1784325869393776e-01  2.8344120192927896e-01  2.4907314432550476e-01  2.1533157538095485e-01  1.8241336864989699e-01  1.5000685193053423e-01  1.1805511499668413e-01  8.6557644861331426e-02  5.5378898617176077e-02  2.4381575704872198e-02  -6.5705657279307803e-03  -3.7618586393325597e-02  -6.8987461189133500e-02  -1.0082601947678121e-01  -1.3330119837187804e-01  -1.6671807410713074e-01  -2.0137151962453623e-01  -2.3694677752643015e-01  -2.7503210658302979e-01  -3.1459605938884577e-01  -3.5374200484728208e-01  -4.0590990780168074e-01  -4.2155231747339095e-01  -5.4636835314813126e-01  -6.4366762255127696e-01  -5.7968765303791928e-02  -7.1041956023462768e-03  2.1421812650126174e-01  3.6757457959324374e-01  4.2411423621844768e-01  4.2886824210711594e-01  3.9664063872600291e-01  3.5429416536862574e-01  3.1799990488867852e-01  2.8369676726478293e-01  2.4927823930806445e-01  2.1552884603443370e-01  1.8262387520981108e-01  1.5044961753491140e-01  1.1885287640990244e-01  8.7789657091179488e-02  5.7167805800074141e-02  2.6825899602046885e-02  -3.3922396403467271e-03  -3.3674625730381727e-02  -6.4239586288414030e-02  -9.5256754269714500e-02  -1.2689843013188468e-01  -1.5963971863468640e-01  -1.9363129354186029e-01  -2.2862549904457527e-01  -2.6647154987068927e-01  -3.0600621813637113e-01  -3.4488719085733455e-01  -3.9791983030734529e-01  -4.1653714925887009e-01  -5.2482642541627667e-01  -6.7226091765378926e-01  -7.6207902165170205e-02  -1.2671663133937326e-02  1.6749892966703642e-01  3.3496953595371565e-01  4.0782643087009512e-01  4.2106738275500666e-01  3.9710384526440101e-01  3.5587182160740782e-01  3.1747238216754464e-01  2.8310918113663774e-01  2.4880222810150404e-01  2.1496996363423751e-01  1.8215441399520407e-01  1.5023154320631960e-01  1.1908175364751052e-01  8.8594918051519964e-02  5.8662934788244872e-02  2.9135108737595991e-02  -1.8572896684162357e-04  -2.9495427006305131e-02  -5.9011301672850000e-02  -8.8926591176708786e-02  -1.1957986474174111e-01  -1.5137373821520234e-01  -1.8434088607895541e-01  -2.1846725322852251e-01  -2.5592381321540286e-01  -2.9461509159847088e-01  -3.3374165800671191e-01  -3.8585283405647575e-01  -4.0849191774388355e-01  -5.0048976959704161e-01  -6.9267470988846092e-01  -9.4091913657369228e-02  -1.4797258947552733e-02  1.1876572823228357e-01  2.9013962421991296e-01  3.8388266093520695e-01  4.0918231084009643e-01  3.9449038440360606e-01  3.5751188894700464e-01  3.1705383948510568e-01  2.8142506015532431e-01  2.4744602125699205e-01  2.1363392196317496e-01  1.8084465982105399e-01  1.4923327430681604e-01  1.1861366563968527e-01  8.8847085620739535e-02  5.9782565190983739e-02  3.1250256138184364e-02  3.0517253294833693e-03  -2.5057962971236948e-02  -5.3265391223914896e-02  -8.1928075012154447e-02  -1.1137533916987424e-01  -1.4177215835203505e-01  -1.7331711485192025e-01  -2.0648844138223202e-01  -2.4294907167501345e-01  -2.8060329208867296e-01  -3.1913219783367630e-01  -3.7069925392438929e-01  -3.9527138950264129e-01  -4.7392046230967255e-01  -7.0563124402188804e-01  -1.1268929739076354e-01  -1.3733908480405671e-02  7.3474989919075015e-02  2.3443062943758625e-01  3.4925093611658842e-01  3.9200235452388099e-01  3.8779450690891876e-01  3.5765478282858271e-01  3.1734652091810811e-01  2.7915310787371778e-01  2.4467672230293899e-01  2.1124524186013841e-01  1.7859032360489568e-01  1.4726975813727272e-01  1.1725853722321915e-01  8.8348176220794217e-02  6.0336138134902503e-02  3.3020396798402039e-02  6.1467214527473274e-03  -2.0496173238024940e-02  -4.7206409010784704e-02  -7.4392865939885769e-02  -1.0212462849415713e-01  -1.3059880260528256e-01  -1.6068324753652077e-01  -1.9257901543588499e-01  -2.2735301978071193e-01  -2.6351654184052320e-01  -3.0092628001587851e-01  -3.5212584897338356e-01  -3.7596914622659444e-01  -4.4478517952405094e-01  -7.1222561351767832e-01  -1.3230023576552424e-01  -1.0634090867271689e-02  3.6657752129718398e-02  1.7295165897935452e-01  3.0125567584385754e-01  3.6615941824469650e-01  3.7582214362737271e-01  3.5428323912480525e-01  3.1729243917127314e-01  2.7724399257860766e-01  2.4065720987383343e-01  2.0709163634688449e-01  1.7495133177386188e-01  1.4413840146868093e-01  1.1484359317538703e-01  8.6938953965286836e-02  6.0176854028412677e-02  3.4297053970163506e-02  9.0336956260626596e-03  -1.5954422677487333e-02  -4.0870374082637016e-02  -6.6008814432190407e-02  -9.1601044904750684e-02  -1.18