<?xml version="1.0"?>
<VTKFile type="UnstructuredGrid"  version="0.1"  >
<UnstructuredGrid>
<Piece  NumberOfPoints="16641" NumberOfCells="16384">
<Points>
<DataArray  type="Float64"  NumberOfComponents="3"  format="ascii">0 0 0  0.0078125 0 0  0.015625 0 0  0.0234375 0 0  0.03125 0 0  0.0390625 0 0  0.046875 0 0  0.0546875 0 0  0.0625 0 0  0.0703125 0 0  0.078125 0 0  0.0859375 0 0  0.09375 0 0  0.1015625 0 0  0.109375 0 0  0.1171875 0 0  0.125 0 0  0.1328125 0 0  0.140625 0 0  0.1484375 0 0  0.15625 0 0  0.1640625 0 0  0.171875 0 0  0.1796875 0 0  0.1875 0 0  0.1953125 0 0  0.203125 0 0  0.2109375 0 0  0.21875 0 0  0.2265625 0 0  0.234375 0 0  0.2421875 0 0  0.25 0 0  0.2578125 0 0  0.265625 0 0  0.2734375 0 0  0.28125 0 0  0.2890625 0 0  0.296875 0 0  0.3046875 0 0  0.3125 0 0  0.3203125 0 0  0.328125 0 0  0.3359375 0 0  0.34375 0 0  0.3515625 0 0  0.359375 0 0  0.3671875 0 0  0.375 0 0  0.3828125 0 0  0.390625 0 0  0.3984375 0 0  0.40625 0 0  0.4140625 0 0  0.421875 0 0  0.4296875 0 0  0.4375 0 0  0.4453125 0 0  0.453125 0 0  0.4609375 0 0  0.46875 0 0  0.4765625 0 0  0.484375 0 0  0.4921875 0 0  0.5 0 0  0.5078125 0 0  0.515625 0 0  0.5234375 0 0  0.53125 0 0  0.5390625 0 0  0.546875 0 0  0.5546875 0 0  0.5625 0 0  0.5703125 0 0  0.578125 0 0  0.5859375 0 0  0.59375 0 0  0.6015625 0 0  0.609375 0 0  0.6171875 0 0  0.625 0 0  0.6328125 0 0  0.640625 0 0  0.6484375 0 0  0.65625 0 0  0.6640625 0 0  0.671875 0 0  0.6796875 0 0  0.6875 0 0  0.6953125 0 0  0.703125 0 0  0.7109375 0 0  0.71875 0 0  0.7265625 0 0  0.734375 0 0  0.7421875 0 0  0.75 0 0  0.7578125 0 0  0.765625 0 0  0.7734375 0 0  0.78125 0 0  0.7890625 0 0  0.796875 0 0  0.8046875 0 0  0.8125 0 0  0.8203125 0 0  0.828125 0 0  0.8359375 0 0  0.84375 0 0  0.8515625 0 0  0.859375 0 0  0.8671875 0 0  0.875 0 0  0.8828125 0 0  0.890625 0 0  0.8984375 0 0  0.90625 0 0  0.9140625 0 0  0.921875 0 0  0.9296875 0 0  0.9375 0 0  0.9453125 0 0  0.953125 0 0  0.9609375 0 0  0.96875 0 0  0.9765625 0 0  0.984375 0 0  0.9921875 0 0  1 0 0  0 0.0078125 0  0.0078125 0.0078125 0  0.015625 0.0078125 0  0.0234375 0.0078125 0  0.03125 0.0078125 0  0.0390625 0.0078125 0  0.046875 0.0078125 0  0.0546875 0.0078125 0  0.0625 0.0078125 0  0.0703125 0.0078125 0  0.078125 0.0078125 0  0.0859375 0.0078125 0  0.09375 0.0078125 0  0.1015625 0.0078125 0  0.109375 0.0078125 0  0.1171875 0.0078125 0  0.125 0.0078125 0  0.1328125 0.0078125 0  0.140625 0.0078125 0  0.1484375 0.0078125 0  0.15625 0.0078125 0  0.1640625 0.0078125 0  0.171875 0.0078125 0  0.1796875 0.0078125 0  0.1875 0.0078125 0  0.1953125 0.0078125 0  0.203125 0.0078125 0  0.2109375 0.0078125 0  0.21875 0.0078125 0  0.2265625 0.0078125 0  0.234375 0.0078125 0  0.2421875 0.0078125 0  0.25 0.0078125 0  0.2578125 0.0078125 0  0.265625 0.0078125 0  0.2734375 0.0078125 0  0.28125 0.0078125 0  0.2890625 0.0078125 0  0.296875 0.0078125 0  0.3046875 0.0078125 0  0.3125 0.0078125 0  0.3203125 0.0078125 0  0.328125 0.0078125 0  0.3359375 0.0078125 0  0.34375 0.0078125 0  0.3515625 0.0078125 0  0.359375 0.0078125 0  0.3671875 0.0078125 0  0.375 0.0078125 0  0.3828125 0.0078125 0  0.390625 0.0078125 0  0.3984375 0.0078125 0  0.40625 0.0078125 0  0.4140625 0.0078125 0  0.421875 0.0078125 0  0.4296875 0.0078125 0  0.4375 0.0078125 0  0.4453125 0.0078125 0  0.453125 0.0078125 0  0.4609375 0.0078125 0  0.46875 0.0078125 0  0.4765625 0.0078125 0  0.484375 0.0078125 0  0.4921875 0.0078125 0  0.5 0.0078125 0  0.5078125 0.0078125 0  0.515625 0.0078125 0  0.5234375 0.0078125 0  0.53125 0.0078125 0  0.5390625 0.0078125 0  0.546875 0.0078125 0  0.5546875 0.0078125 0  0.5625 0.0078125 0  0.5703125 0.0078125 0  0.578125 0.0078125 0  0.5859375 0.0078125 0  0.59375 0.0078125 0  0.6015625 0.0078125 0  0.609375 0.0078125 0  0.6171875 0.0078125 0  0.625 0.0078125 0  0.6328125 0.0078125 0  0.640625 0.0078125 0  0.6484375 0.0078125 0  0.65625 0.0078125 0  0.6640625 0.0078125 0  0.671875 0.0078125 0  0.6796875 0.0078125 0  0.6875 0.0078125 0  0.6953125 0.0078125 0  0.703125 0.0078125 0  0.7109375 0.0078125 0  0.71875 0.0078125 0  0.7265625 0.0078125 0  0.734375 0.0078125 0  0.7421875 0.0078125 0  0.75 0.0078125 0  0.7578125 0.0078125 0  0.765625 0.0078125 0  0.7734375 0.0078125 0  0.78125 0.0078125 0  0.7890625 0.0078125 0  0.796875 0.0078125 0  0.8046875 0.0078125 0  0.8125 0.0078125 0  0.8203125 0.0078125 0  0.828125 0.0078125 0  0.8359375 0.0078125 0  0.84375 0.0078125 0  0.8515625 0.0078125 0  0.859375 0.0078125 0  0.8671875 0.0078125 0  0.875 0.0078125 0  0.8828125 0.0078125 0  0.890625 0.0078125 0  0.8984375 0.0078125 0  0.90625 0.0078125 0  0.9140625 0.0078125 0  0.921875 0.0078125 0  0.9296875 0.0078125 0  0.9375 0.0078125 0  0.9453125 0.0078125 0  0.953125 0.0078125 0  0.9609375 0.0078125 0  0.96875 0.0078125 0  0.9765625 0.0078125 0  0.984375 0.0078125 0  0.9921875 0.0078125 0  1 0.0078125 0  0 0.015625 0  0.0078125 0.015625 0  0.015625 0.015625 0  0.0234375 0.015625 0  0.03125 0.015625 0  0.0390625 0.015625 0  0.046875 0.015625 0  0.0546875 0.015625 0  0.0625 0.015625 0  0.0703125 0.015625 0  0.078125 0.015625 0  0.0859375 0.015625 0  0.09375 0.015625 0  0.1015625 0.015625 0  0.109375 0.015625 0  0.1171875 0.015625 0  0.125 0.015625 0  0.1328125 0.015625 0  0.140625 0.015625 0  0.1484375 0.015625 0  0.15625 0.015625 0  0.1640625 0.015625 0  0.171875 0.015625 0  0.1796875 0.015625 0  0.1875 0.015625 0  0.1953125 0.015625 0  0.203125 0.015625 0  0.2109375 0.015625 0  0.21875 0.015625 0  0.2265625 0.015625 0  0.234375 0.015625 0  0.2421875 0.015625 0  0.25 0.015625 0  0.2578125 0.015625 0  0.265625 0.015625 0  0.2734375 0.015625 0  0.28125 0.015625 0  0.2890625 0.015625 0  0.296875 0.015625 0  0.3046875 0.015625 0  0.3125 0.015625 0  0.3203125 0.015625 0  0.328125 0.015625 0  0.3359375 0.015625 0  0.34375 0.015625 0  0.3515625 0.015625 0  0.359375 0.015625 0  0.3671875 0.015625 0  0.375 0.015625 0  0.3828125 0.015625 0  0.390625 0.015625 0  0.3984375 0.015625 0  0.40625 0.015625 0  0.4140625 0.015625 0  0.421875 0.015625 0  0.4296875 0.015625 0  0.4375 0.015625 0  0.4453125 0.015625 0  0.453125 0.015625 0  0.4609375 0.015625 0  0.46875 0.015625 0  0.4765625 0.015625 0  0.484375 0.015625 0  0.4921875 0.015625 0  0.5 0.015625 0  0.5078125 0.015625 0  0.515625 0.015625 0  0.5234375 0.015625 0  0.53125 0.015625 0  0.5390625 0.015625 0  0.546875 0.015625 0  0.5546875 0.015625 0  0.5625 0.015625 0  0.5703125 0.015625 0  0.578125 0.015625 0  0.5859375 0.015625 0  0.59375 0.015625 0  0.6015625 0.015625 0  0.609375 0.015625 0  0.6171875 0.015625 0  0.625 0.015625 0  0.6328125 0.015625 0  0.640625 0.015625 0  0.6484375 0.015625 0  0.65625 0.015625 0  0.6640625 0.015625 0  0.671875 0.015625 0  0.6796875 0.015625 0  0.6875 0.015625 0  0.6953125 0.015625 0  0.703125 0.015625 0  0.7109375 0.015625 0  0.71875 0.015625 0  0.7265625 0.015625 0  0.734375 0.015625 0  0.7421875 0.015625 0  0.75 0.015625 0  0.7578125 0.015625 0  0.765625 0.015625 0  0.7734375 0.015625 0  0.78125 0.015625 0  0.7890625 0.015625 0  0.796875 0.015625 0  0.8046875 0.015625 0  0.8125 0.015625 0  0.8203125 0.015625 0  0.828125 0.015625 0  0.8359375 0.015625 0  0.84375 0.015625 0  0.8515625 0.015625 0  0.859375 0.015625 0  0.8671875 0.015625 0  0.875 0.015625 0  0.8828125 0.015625 0  0.890625 0.015625 0  0.8984375 0.015625 0  0.90625 0.015625 0  0.9140625 0.015625 0  0.921875 0.015625 0  0.9296875 0.015625 0  0.9375 0.015625 0  0.9453125 0.015625 0  0.953125 0.015625 0  0.9609375 0.015625 0  0.96875 0.015625 0  0.9765625 0.015625 0  0.984375 0.015625 0  0.9921875 0.015625 0  1 0.015625 0  0 0.0234375 0  0.0078125 0.0234375 0  0.015625 0.0234375 0  0.0234375 0.0234375 0  0.03125 0.0234375 0  0.0390625 0.0234375 0  0.046875 0.0234375 0  0.0546875 0.0234375 0  0.0625 0.0234375 0  0.0703125 0.0234375 0  0.078125 0.0234375 0  0.0859375 0.0234375 0  0.09375 0.0234375 0  0.1015625 0.0234375 0  0.109375 0.0234375 0  0.1171875 0.0234375 0  0.125 0.0234375 0  0.1328125 0.0234375 0  0.140625 0.0234375 0  0.1484375 0.0234375 0  0.15625 0.0234375 0  0.1640625 0.0234375 0  0.171875 0.0234375 0  0.1796875 0.0234375 0  0.1875 0.0234375 0  0.1953125 0.0234375 0  0.203125 0.0234375 0  0.2109375 0.0234375 0  0.21875 0.0234375 0  0.2265625 0.0234375 0  0.234375 0.0234375 0  0.2421875 0.0234375 0  0.25 0.0234375 0  0.2578125 0.0234375 0  0.265625 0.0234375 0  0.2734375 0.0234375 0  0.28125 0.0234375 0  0.2890625 0.0234375 0  0.296875 0.0234375 0  0.3046875 0.0234375 0  0.3125 0.0234375 0  0.3203125 0.0234375 0  0.328125 0.0234375 0  0.3359375 0.0234375 0  0.34375 0.0234375 0  0.3515625 0.0234375 0  0.359375 0.0234375 0  0.3671875 0.0234375 0  0.375 0.0234375 0  0.3828125 0.0234375 0  0.390625 0.0234375 0  0.3984375 0.0234375 0  0.40625 0.0234375 0  0.4140625 0.0234375 0  0.421875 0.0234375 0  0.4296875 0.0234375 0  0.4375 0.0234375 0  0.4453125 0.0234375 0  0.453125 0.0234375 0  0.4609375 0.0234375 0  0.46875 0.0234375 0  0.4765625 0.0234375 0  0.484375 0.0234375 0  0.4921875 0.0234375 0  0.5 0.0234375 0  0.5078125 0.0234375 0  0.515625 0.0234375 0  0.5234375 0.0234375 0  0.53125 0.0234375 0  0.5390625 0.0234375 0  0.546875 0.0234375 0  0.5546875 0.0234375 0  0.5625 0.0234375 0  0.5703125 0.0234375 0  0.578125 0.0234375 0  0.5859375 0.0234375 0  0.59375 0.0234375 0  0.6015625 0.0234375 0  0.609375 0.0234375 0  0.6171875 0.0234375 0  0.625 0.0234375 0  0.6328125 0.0234375 0  0.640625 0.0234375 0  0.6484375 0.0234375 0  0.65625 0.0234375 0  0.6640625 0.0234375 0  0.671875 0.0234375 0  0.6796875 0.0234375 0  0.6875 0.0234375 0  0.6953125 0.0234375 0  0.703125 0.0234375 0  0.7109375 0.0234375 0  0.71875 0.0234375 0  0.7265625 0.0234375 0  0.734375 0.0234375 0  0.7421875 0.0234375 0  0.75 0.0234375 0  0.7578125 0.0234375 0  0.765625 0.0234375 0  0.7734375 0.0234375 0  0.78125 0.0234375 0  0.7890625 0.0234375 0  0.796875 0.0234375 0  0.8046875 0.0234375 0  0.8125 0.0234375 0  0.8203125 0.0234375 0  0.828125 0.0234375 0  0.8359375 0.0234375 0  0.84375 0.0234375 0  0.8515625 0.0234375 0  0.859375 0.0234375 0  0.8671
[...]
<PointData  Scalars="u_sol"> 
<DataArray  type="Float64"  Name="u_sol"  format="ascii">-6.1530058667574411e-10  3.0778045386189610e-09  1.4024644091027366e-08  3.2040360917015395e-08  5.6946112225378773e-08  8.8558133810109468e-08  1.2669072336051311e-07  1.7115549738743613e-07  2.2176165023735626e-07  2.7831594729956626e-07  3.4062279273343249e-07  4.0848428026830206e-07  4.8170025183646985e-07  5.6006835737742976e-07  6.4338411772837045e-07  7.3144099013557983e-07  8.2403043661655914e-07  9.2094199515895730e-07  1.0219633538749362e-06  1.1268804281407181e-06  1.2354774408076033e-06  1.3475370055291481e-06  1.4628402133155279e-06  1.5811667223433857e-06  1.7022948510999794e-06  1.8260016749703672e-06  1.9520631262970042e-06  2.0802540979956098e-06  2.2103485508379451e-06  2.3421196244301441e-06  2.4753397520023578e-06  2.6097807790925047e-06  2.7452140861447449e-06  2.8814107152131906e-06  3.0181415007524729e-06  3.1551772046305955e-06  3.2922886554408263e-06  3.4292468922477813e-06  3.5658233127728211e-06  3.7017898261251182e-06  3.8369190103152299e-06  3.9709842743768832e-06  4.1037600254966854e-06  4.2350218410149070e-06  4.3645466454444289e-06  4.4921128928200841e-06  4.6175007541501284e-06  4.7404923102685442e-06  4.8608717501559774e-06  4.9784255749932938e-06  5.0929428076750903e-06  5.2042152082583554e-06  5.3120374953574406e-06  5.4162075734800866e-06  5.5165267665903925e-06  5.6128000579805350e-06  5.7048363363522468e-06  5.7924486486366165e-06  5.8754544593290155e-06  5.9536759166398933e-06  6.0269401256057501e-06  6.0950794279584435e-06  6.1579316896042555e-06  6.2153405950266023e-06  6.2671559492477572e-06  6.3132339875231408e-06  6.3534376924606300e-06  6.3876371192428555e-06  6.4157097288359885e-06  6.4375407292614931e-06  6.4530234252085103e-06  6.4620595762679346e-06  6.4645597634796974e-06  6.4604437649976701e-06  6.4496409405931923e-06  6.4320906250395336e-06  6.4077425311679479e-06  6.3765571620866679e-06  6.3385062330380746e-06  6.2935731032363947e-06  6.2417532175826453e-06  6.1830545582056798e-06  6.1174981069523666e-06  6.0451183180555481e-06  5.9659636012194431e-06  5.8800968162237151e-06  5.7875957781877711e-06  5.6885537743429690e-06  5.5830800920188475e-06  5.4713005586376017e-06  5.3533580934953751e-06  5.2294132715680100e-06  5.0996448997739905e-06  4.9642506055974771e-06  4.8234474387474699e-06  4.6774724856612944e-06  4.5265834969502874e-06  4.3710595287824231e-06  4.2112015977589544e-06  4.0473333492288394e-06  3.8798017406740117e-06  3.7089777387085582e-06  3.5352570308539592e-06  3.3590607526622748e-06  3.1808362295306667e-06  3.0010577339224306e-06  2.8202272586954455e-06  2.6388753058845836e-06  2.4575616917441329e-06  2.2768763688772348e-06  2.0974402642033167e-06  1.9199061346085284e-06  1.7449594398754767e-06  1.5733192329593465e-06  1.4057390683831494e-06  1.2430079288819139e-06  1.0859511705060196e-06  9.3543148647621680e-07  7.9234989044103623e-07  6.5764671865983032e-07  5.3230265407573074e-07  4.1733976114894205e-07  3.1382257979913008e-07  2.2285908884271575e-07  1.4560226714156724e-07  8.3249504494140514e-08  3.7050170335551935e-08  8.2828023659284210e-09  -1.6541948681339091e-09  -1.5500992449699655e-07  7.7537733759461382e-07  3.5331659731118706e-06  8.0717864512590096e-06  1.4346183713789511e-05  2.2310062788191084e-05  3.1916640391010237e-05  4.3118457839082160e-05  5.5867446222602189e-05  7.0114924746782906e-05  8.5811617758303668e-05  1.0290766756149071e-04  1.2135264917696689e-04  1.4109558541306510e-04  1.6208496270572631e-04  1.8426874762430417e-04  2.0759440409051454e-04  2.3200891131806923e-04  2.5745878249147598e-04  2.8389008419994023e-04  3.1124845664334220e-04  3.3947913462734655e-04  3.6852696936506835e-04  3.9833645110301801e-04  4.2885173258930113e-04  4.6001665340244532e-04  4.9177476515944877e-04  5.2406935762204737e-04  5.5684348572046841e-04  5.9003999751426801e-04  6.2360156311025569e-04  6.5747070455773535e-04  6.9158982674176462e-04  7.2590124929532531e-04  7.6034723955181922e-04  7.9487004655951301e-04  8.2941193618013651e-04  8.6391522729388460e-04  8.9832232913377721e-04  9.3257577977252004e-04  9.6661828578537652e-04  1.0003927631131693e-03  1.0338423791496989e-03  1.0669105960782231e-03  1.0995412154824827e-03  1.1316784242577319e-03  1.1632668418476398e-03  1.1942515688336749e-03  1.2245782369039889e-03  1.2541930602289063e-03  1.2830428882708569e-03  1.3110752600571233e-03  1.3382384599438042e-03  1.3644815749003984e-03  1.3897545533449712e-03  1.4140082655589538e-03  1.4371945657132646e-03  1.4592663555366774e-03  1.4801776496573325e-03  1.4998836426502841e-03  1.5183407778235185e-03  1.5355068177752161e-03  1.5513409167563857e-03  1.5658036948731060e-03  1.5788573141628270e-03  1.5904655565800428e-03  1.6005939039277605e-03  1.6092096197709367e-03  1.6162818333684032e-03  1.6217816256619067e-03  1.6256821173596288e-03  1.6279585591534535e-03  1.6285884241094011e-03  1.6275515022711557e-03  1.6248299975174085e-03  1.6204086267145338e-03  1.6142747212065040e-03  1.6064183306842550e-03  1.5968323294785329e-03  1.5855125253198480e-03  1.5724577706100506e-03  1.5576700762510789e-03  1.5411547280771776e-03  1.5229204059367756e-03  1.5029793054720205e-03  1.4813472626444175e-03  1.4580438810544922e-03  1.4330926621068324e-03  1.4065211380693188e-03  1.3783610080791650e-03  1.3486482771474760e-03  1.3174233982143151e-03  1.2847314173094317e-03  1.2506221218720407e-03  1.2151501922856873e-03  1.1783753566836676e-03  1.1403625490826119e-03  1.1011820709022396e-03  1.0609097559292715e-03  1.0196271387858077e-03  9.7742162696295228e-04  9.3438667648037871e-04  8.9062197123476305e-04  8.4623360610094347e-04  8.0133427384886070e-04  7.5604345594239741e-04  7.1048761728674298e-04  6.6480040499032427e-04  6.1912285121072577e-04  5.7360358015346542e-04  5.2839901929352525e-04  4.8367361489170976e-04  4.3960005187797122e-04  3.9635947817498045e-04  3.5414173353694357e-04  3.1314558297843362e-04  2.7357895487458355e-04  2.3565918379205125e-04  1.9961325819971079e-04  1.6567807287992111e-04  1.3410068708750620e-04  1.0513858493945836e-04  7.9059951545359085e-05  5.6143914875530078e-05  3.6680940340675641e-05  2.0972680803293127e-05  9.3338844748011779e-06  2.0866492211902171e-06  -4.1673392879091041e-07  -3.0210640685340511e-07  1.5111707284960523e-06  6.8859596062114703e-06  1.5731498610986598e-05  2.7959977744597818e-05  4.3481170474608225e-05  6.2203898573796805e-05  8.4035667495319384e-05  1.0888279339187775e-04  1.3665039988393048e-04  1.6724245124333814e-04  2.0056177737147281e-04  2.3651010256300651e-04  2.7498807487932701e-04  3.1589529701967709e-04  3.5913035849007664e-04  4.0459086916218659e-04  4.5217349423669627e-04  5.0177399064735924e-04  5.5328724493665046e-04  6.0660731263616967e-04  6.6162745918502022e-04  7.1824020242016362e-04  7.7633735667318631e-04  8.3581007850863425e-04  8.9654891413961746e-04  9.5844384855703704e-04  1.0213843564093369e-03  1.0852594546703776e-03  1.1499577571337481e-03  1.2153675307722571e-03  1.2813767540022585e-03  1.3478731768929760e-03  1.4147443833617040e-03  1.4818778553965255e-03  1.5491610393487878e-03  1.6164814143383971e-03  1.6837265628155090e-03  1.7507842433232934e-03  1.8175424655068786e-03  1.8838895674142058e-03  1.9497142951359983e-03  2.0149058848318198e-03  2.0793541471908804e-03  2.1429495543765845e-03  2.2055833295045808e-03  2.2671475387051831e-03  2.3275351858217793e-03  2.3866403097974340e-03  2.4443580848030264e-03  2.5005849231613127e-03  2.5552185811214866e-03  2.6081582675404618e-03  2.6593047555278537e-03  2.7085604971119354e-03  2.7558297409856982e-03  2.8010186533925321e-03  2.8440354422121505e-03  2.8847904843083221e-03  2.9231964562009718e-03  2.9591684681263561e-03  2.9926242015499184e-03  3.0234840501972681e-03  3.0516712646703865e-03  3.0771121007163913e-03  3.0997359712180146e-03  3.1194756019757484e-03  3.1362671913526398e-03  3.1500505738537576e-03  3.1607693877140574e-03  3.1683712465688995e-03  3.1728079152827451e-03  3.1740354900135423e-03  3.1720145825899541e-03  3.1667105092815563e-03  3.1580934840422514e-03  3.1461388163086992e-03  3.1308271134367245e-03  3.1121444878606515e-03  3.0900827690606117e-03  3.0646397204252551e-03  3.0358192610983768e-03  3.0036316928990069e-03  2.9680939324061351e-03  2.9292297483010580e-03  2.8870700040608014e-03  2.8416529060984463e-03  2.7930242574473953e-03  2.7412377170876051e-03  2.6863550650142393e-03  2.6284464731500764e-03  2.5675907822042361e-03  2.5038757845825812e-03  2.4373985134558199e-03  2.3682655380924209e-03  2.2965932655672865e-03  2.2225082489559355e-03  2.1461475021275277e-03  2.0676588212517558e-03  1.9872011131351823e-03  1.9049447305053513e-03  1.8210718143626980e-03  1.7357766435219168e-03  1.6492659914656505e-03  1.5617594906366661e-03  1.4734900042953501e-03  1.3847040060714021e-03  1.2956619673414455e-03  1.2066387525651349e-03  1.1179240227145776e-03  1.0298226469350239e-03  9.4265512257486598e-04  8.5675800372671208e-04  7.7248433842271285e-04  6.9020411462988895e-04  6.1030471519048950e-04  5.3319138186725800e-04  4.5928768860863876e-04  3.8903602432405616e-04  3.2289808482057814e-04  2.6135537594205636e-04  2.0490972105439089e-04  1.5408379921185369e-04  1.0942161654213857e-04  7.1489275269062528e-05  4.0874681381429187e-05  1.8191263038650325e-05  4.0667725007637225e-06  -8.1219309256191971e-07  -4.4202507800806082e-07  2.2110598879414277e-06  1.0075148247397908e-05  2.3017442731217854e-05  4.0909464700326699e-05  6.3619199775301772e-05  9.1013241108107808e-05  1.2295625588510813e-04  1.5931117117492163e-04  1.9993916920016928e-04  2.4469973589005963e-04  2.9345069742698124e-04  3.4604826233209697e-04  4.0234706444284868e-04  4.6220020808188539e-04  5.2545931512479110e-04  5.9197457410149670e-04  6.6159479135277080e-04  7.3416744429448963e-04  8.0953873683517984e-04  8.8755365699518581e-04  9.6805603677615939e-04  1.0508886143304765e-03  1.1358930984811922e-03  1.2229102356437675e-03  1.3117798792018868e-03  1.4023410613905893e-03  1.4944320677406191e-03  1.5878905141391130e-03  1.6825534265625859e-03  1.7782573235389676e-03  1.8748383013966286e-03  1.9721321223593103e-03  2.0699743055466319e-03  2.1682002209411078e-03  2.2666451863836037e-03  2.3651445676600240e-03  2.4635338817433402e-03  2.5616489032558730e-03  2.6593257742180605e-03  2.7564011171509208e-03  2.8527121516005323e-03  2.9480968141541355e-03  3.0423938820183273e-03  3.1354431002314589e-03  3.2270853125828123e-03  3.3171625963132993e-03  3.4055184006726181e-03  3.4919976894100657e-03  3.5764470872763458e-03  3.6587150306160656e-03  3.7386519221313439e-03  3.8161102898981092e-03  3.8909449507186751e-03  3.9630131778945086e-03  4.0321748735057212e-03  4.0982927452842136e-03  4.1612324881690433e-03  4.2208629706346002e-03  4.2770564258826143e-03  4.3296886479915041e-03  4.3786391931173105e-03  4.4237915858425011e-03  4.4650335307699256e-03  4.5022571294616801e-03  4.5353591028228172e-03  4.5642410190330444e-03  4.5888095271299032e-03  4.6089765963491756e-03  4.6246597613298869e-03  4.6357823732929068e-03  4.6422738573038448e-03  4.6440699757326863e-03  4.6411130980245205e-03  4.6333524768974281e-03  4.6207445310852083e-03  4.6032531347448427e-03  4.5808499136503729e-03  4.5535145482964437e-03  4.5212350840370778e-03  4.4840082483870542e-03  4.4418397756152460e-03  4.3947447387614417e-03  4.3427478892097537e-03  4.2858840039542902e-03  4.2241982406948167e-03  4.1577465009016296e-03  4.0865958009919786e-03  4.0108246517619245e-03  3.9305234462196689e-03  3.8457948559692222e-03  3.7567542362949295e-03  3.6635300400998179e-03  3.5662642408535888e-03  3.4651127647078238e-03  3.3602459319383216e-03  3.2518489078778717e-03  3.1401221635038155e-03  3.0252819458485695e-03  2.9075607584029190e-03  2.7872078516850409e-03  2.6644897241505120e-03  2.5396906336211901e-03  2.4131131194138401e-03  2.2850785353517584e-03  2.1559275938455524e-03  2.0260209212319834e-03  1.8957396245629010e-03  1.7654858700386592e-03  1.6356834732836395e-03  1.5067785016644694e-03  1.3792398888544002e-03  1.2535600618505608e-03  1.1302555806532463e-03  1.0098677908212661e-03  8.9296348911500900e-04  7.8013560246114146e-04  6.7200388040781611e-04  5.6921560149415481e-04  4.7244629302423293e-04  3.8240046723211972e-04  2.9981236380598951e-04  2.2544673730251873e-04  1.6009954685168541e-04  1.0459908134676130e-04  5.9805531721949661e-05  2.6616431512461302e-05  5.9502724641666153e-06  -1.1883551873402090e-06  -5.7488050820776724e-07  2.8756179098460403e-06  1.3103343308526460e-05  2.9935584771513504e-05  5.3205248016570229e-05  8.2740640312706432e-05  1.1836825793649908e-04  1.5991209232788406e-04  2.0719387179721696e-04  2.6003305537627725e-04  3.1824689596404916e-04  3.8165048785791317e-04  4.5005682148858132e-04  5.2327683931497877e-04  6.0111949456919550e-04  6.8339181247092137e-04  7.6989895408683502e-04  8.6044428286267396e-04  9.5482943389671503e-04  1.0528543860135937e-03  1.1543175367015575e-03  1.2590157799763310e-03  1.3667445872362720e-03  1.4772980911744230e-03  1.5904691728142926e-03  1.7060495517373909e-03  1.8238298795714759e-03  1.9435998368100137e-03  2.0651482330343298e-03  2.1882631106110756e-03  2.3127318519392125e-03  2.4383412903215352e-03  2.5648778245374146e-03  2.6921275371945179e-03  2.8198763169386791e-03  2.9479099846022793e-03  3.0760144233731475e-03  3.2039757130670229e-03  3.3315802685882959e-03  3.4586149826648944e-03  3.5848673729449161e-03  3.7101257335438562e-03  3.8341792911327647e-03  3.9568183656593413e-03  4.0778345357951658e-03  4.1970208092042801e-03  4.3141717977295529e-03  4.4290838975947662e-03  4.5415554747223761e-03  4.6513870552682976e-03  4.7583815214764583e-03  4.8623443129583079e-03  4.9630836335033349e-03  5.0604106635287671e-03  5.1541397782784619e-03  5.2440887718828840e-03  5.3300790873932902e-03  5.4119360529056963e-03  5.4894891238917243e-03  5.5625721318558127e-03  5.6310235394390331e-03  5.6946867020933765e-03  5.7534101364507522e-03  5.8070477955141130e-03  5.8554593507991332e-03  5.8985104815582794e-03  5.9360731712195499e-03  5.9680260111755964e-03  5.9942545120605867e-03  6.0146514226541567e-03  6.0291170565544916e-03  6.0375596267644160e-03  6.0398955883364143e-03  6.0360499892262720e-03  6.0259568295049585e-03  6.0095594290827106e-03  5.9868108041012712e-03  5.9576740521518614e-03  5.9221227464798304e-03  5.8801413393390085e-03  5.8317255746613639e-03  5.7768829102107814e-03  5.7156329493907691e-03  5.6480078828803080e-03  5.5740529402745174e-03  5.4938268519074528e-03  5.4074023210406918e-03  5.3148665066007463e-03  5.2163215166530965e-03  5.1118849128033664e-03  5.0016902257181261e-03  4.8858874819622160e-03  4.7646437423507892e-03  4.6381436520189449e-03  4.5065900024136955e-03  4.3702043054169026e-03  4.2292273798104655e-03  4.0839199502987911e-03  3.9345632593061506e-03  3.7814596917705211e-03  3.6249334131584136e-03  3.4653310209286541e-03  3.3030222096771646e-03  3.1384004501965133e-03  2.9718836826901612e-03  2.8039150243827052e-03  2.6349634917716427e-03  2.4655247377707748e-03  2.2961218039981735e-03  2.1273058884652232e-03  1.9596571289281304e-03  1.7937854021662614e-03  1.6303311394559753e-03  1.4699661585126740e-03  1.3133945121783681e-03  1.1613533541312529e-03  1.0146138219204776e-03  8.7398193754592980e-04  7.4029952613529194e-04  6.1444515205356671e-04  4.9733507633070392e-04  3.8992422235939862e-04  2.9320719997561427e-04  2.0821920246158888e-04  1.3603746992370960e-04  7.7780733012931783e-05  3.4616288702274505e-05  7.7386913871176227e-06  -1.5455282276063575e-06  -7.0078881046351939e-07  3.5054256049501415e-06  1.5973191371058626e-05  3.6491971044951479e-05  6.4858073948648957e-05  1.0086220381670364e-04  1.4429285675198483e-04  1.9493547541896860e-04  2.5257274368914017e-04  3.1698457914563762e-04  3.8794821005926235e-04  4.6523823332992524e-04  5.4862668120951412e-04  6.3788308943875220e-04  7.3277456885826361e-04  8.3306588003002218e-04  9.3851951108295977e-04  1.0488957588167132e-03  1.1639528131470547e-03  1.2834468449651343e-03  1.4071320974871451e-03  1.5347609811716934e-03  1.6660841722835318e-03  1.8008507151837294e-03  1.9388081284276975e-03  2.0797025147540117e-03  2.2232786750481549e-03  2.3692802263670077e-03  2.5174497241112243e-03  2.6675287884342304e-03  2.8192582349779796e-03  2.9723782100271909e-03  3.1266283301753812e-03  3.2817478265975671e-03  3.4374756940260404e-03  3.5935508445273587e-03  3.7497122661803877e-03  3.9056991867565910e-03  4.0612512425059304e-03  4.2161086521531046e-03  4.3700123962107339e-03  4.5227044017178680e-03  4.6739277325141323e-03  4.8234267851611830e-03  4.9709474906258697e-03  5.1162375218404025e-03  5.2590465072570574e-03  5.3991262505179941e-03  5.5362309563604210e-03  5.6701174628815097e-03  5.8005454802886646e-03  5.9272778362623327e-03  6.0500807280614126e-03  6.1687239815030864e-03  6.2829813169508961e-03  6.3926306224473600e-03  6.4974542341295245e-03  6.5972392240680171e-03  6.6917776956725017e-03  6.7808670868085008e-03  6.8643104807735071e-03  6.9419169252821697e-03  7.0135017596124286e-03  7.0788869500680715e-03  7.1379014339142356e-03  7.1903814719459910e-03  7.2361710098522922e-03  7.2751220485399223e-03  7.3070950235849070e-03  7.3319591939818357e-03  7.3495930403637772e-03  7.3598846728677933e-03  7.3627322488256115e-03  7.3580444004592493e-03  7.3457406727665247e-03  7.3257519717829867e-03  7.2980210234098019e-03  7.2625028430010384e-03  7.2191652159056385e-03  7.1679891891629601e-03  7.1089695745541149e-03  7.0421154632140199e-03  6.9674507520122130e-03  6.8850146819147626e-03  6.7948623885407105e-03  6.6970654651328249e-03  6.5917125381624794e-03  6.4789098557947265e-03  6.3587818894416349e-03  6.2314719486352525e-03  6.0971428094563013e-03  5.9559773567574911e-03  5.8081792404235128e-03  5.6539735459150446e-03  5.4936074793464663e-03  5.3273510673507085e-03  5.1554978719908105e-03  4.9783657209773223e-03  4.7962974534600652e-03  4.6096616816617446e-03  4.4188535686287000e-03  4.2242956223761466e-03  4.0264385067101246e-03  3.8257618690128296e-03  3.6227751852819477e-03  3.4180186227187812e-03  3.2120639201657416e-03  3.0055152866958561e-03  2.7990103186638989e-03  2.5932209355324031e-03  2.3888543347897338e-03  2.1866539662833010e-03  1.9874005262960443e-03  1.7919129716969212e-03  1.6010495545052568e-03  1.4157088772047471e-03  1.2368309691774429e-03  1.0653983845255012e-03  9.0243732195320885e-04  7.4901876590045000e-04  6.0625965366242307e-04  4.7532405259147361e-04  3.5742440846802981e-04  2.5382263896199693e-04  1.6583191751429221e-04  9.4815995222188412e-05  4.2197826327168538e-05  9.4335923134881122e-06  -1.8840243758033312e-06  -8.1986568408490892e-07  4.1010617144405870e-06  1.8687329587826038e-05  4.2692626326972102e-05  7.5878650475829119e-05  1.1800054249667442e-04  1.6881086010124514e-04  2.2805858872646721e-04  2.9548948624593904e-04  3.7084607420131521e-04  4.5386772785817564e-04  5.4429074399296913e-04  6.4184841895344570e-04  7.4627112837326835e-04  8.5728641095116510e-04  9.7461905575196362e-04  1.0979911932796084e-03  1.2271223903619235e-03  1.3617297489448752e-03  1.5015280088806595e-03  1.6462296547994542e-03  1.7955450271548436e-03  1.9491824375354112e-03  2.1068482883358345e-03  2.2682471968829645e-03  2.4330821241136270e-03  2.6010545079029643e-03  2.7718644011434221e-03  2.9452106146764449e-03  3.1207908651806307e-03  3.2983019281219244e-03  3.4774397958729350e-03  3.6578998411108390e-03  3.8393769856046689e-03  4.0215658745047173e-03  4.2041610562491057e-03  4.3868571682040593e-03  4.5693491281565560e-03  4.7513323317799365e-03  4.9325028561953994e-03  5.1125576697536599e-03  5.2911948481639999e-03  5.4681137970994708e-03  5.6430154814089391e-03  5.8156026610699787e-03  5.9855801340172148e-03  6.1526549859841958e-03  6.3165368474986426e-03  6.4769381581735548e-03  6.6335744384379731e-03  6.7861645688551617e-03  6.9344310771774099e-03  7.0781004332885660e-03  7.2169033521892311e-03  7.3505751051813062e-03  7.47