<?xml version="1.0"?>
<VTKFile type="UnstructuredGrid"  version="0.1"  >
<UnstructuredGrid>
<Piece  NumberOfPoints="16641" NumberOfCells="16384">
<Points>
<DataArray  type="Float64"  NumberOfComponents="3"  format="ascii">0 0 0  0.0078125 0 0  0.015625 0 0  0.0234375 0 0  0.03125 0 0  0.0390625 0 0  0.046875 0 0  0.0546875 0 0  0.0625 0 0  0.0703125 0 0  0.078125 0 0  0.0859375 0 0  0.09375 0 0  0.1015625 0 0  0.109375 0 0  0.1171875 0 0  0.125 0 0  0.1328125 0 0  0.140625 0 0  0.1484375 0 0  0.15625 0 0  0.1640625 0 0  0.171875 0 0  0.1796875 0 0  0.1875 0 0  0.1953125 0 0  0.203125 0 0  0.2109375 0 0  0.21875 0 0  0.2265625 0 0  0.234375 0 0  0.2421875 0 0  0.25 0 0  0.2578125 0 0  0.265625 0 0  0.2734375 0 0  0.28125 0 0  0.2890625 0 0  0.296875 0 0  0.3046875 0 0  0.3125 0 0  0.3203125 0 0  0.328125 0 0  0.3359375 0 0  0.34375 0 0  0.3515625 0 0  0.359375 0 0  0.3671875 0 0  0.375 0 0  0.3828125 0 0  0.390625 0 0  0.3984375 0 0  0.40625 0 0  0.4140625 0 0  0.421875 0 0  0.4296875 0 0  0.4375 0 0  0.4453125 0 0  0.453125 0 0  0.4609375 0 0  0.46875 0 0  0.4765625 0 0  0.484375 0 0  0.4921875 0 0  0.5 0 0  0.5078125 0 0  0.515625 0 0  0.5234375 0 0  0.53125 0 0  0.5390625 0 0  0.546875 0 0  0.5546875 0 0  0.5625 0 0  0.5703125 0 0  0.578125 0 0  0.5859375 0 0  0.59375 0 0  0.6015625 0 0  0.609375 0 0  0.6171875 0 0  0.625 0 0  0.6328125 0 0  0.640625 0 0  0.6484375 0 0  0.65625 0 0  0.6640625 0 0  0.671875 0 0  0.6796875 0 0  0.6875 0 0  0.6953125 0 0  0.703125 0 0  0.7109375 0 0  0.71875 0 0  0.7265625 0 0  0.734375 0 0  0.7421875 0 0  0.75 0 0  0.7578125 0 0  0.765625 0 0  0.7734375 0 0  0.78125 0 0  0.7890625 0 0  0.796875 0 0  0.8046875 0 0  0.8125 0 0  0.8203125 0 0  0.828125 0 0  0.8359375 0 0  0.84375 0 0  0.8515625 0 0  0.859375 0 0  0.8671875 0 0  0.875 0 0  0.8828125 0 0  0.890625 0 0  0.8984375 0 0  0.90625 0 0  0.9140625 0 0  0.921875 0 0  0.9296875 0 0  0.9375 0 0  0.9453125 0 0  0.953125 0 0  0.9609375 0 0  0.96875 0 0  0.9765625 0 0  0.984375 0 0  0.9921875 0 0  1 0 0  0 0.0078125 0  0.0078125 0.0078125 0  0.015625 0.0078125 0  0.0234375 0.0078125 0  0.03125 0.0078125 0  0.0390625 0.0078125 0  0.046875 0.0078125 0  0.0546875 0.0078125 0  0.0625 0.0078125 0  0.0703125 0.0078125 0  0.078125 0.0078125 0  0.0859375 0.0078125 0  0.09375 0.0078125 0  0.1015625 0.0078125 0  0.109375 0.0078125 0  0.1171875 0.0078125 0  0.125 0.0078125 0  0.1328125 0.0078125 0  0.140625 0.0078125 0  0.1484375 0.0078125 0  0.15625 0.0078125 0  0.1640625 0.0078125 0  0.171875 0.0078125 0  0.1796875 0.0078125 0  0.1875 0.0078125 0  0.1953125 0.0078125 0  0.203125 0.0078125 0  0.2109375 0.0078125 0  0.21875 0.0078125 0  0.2265625 0.0078125 0  0.234375 0.0078125 0  0.2421875 0.0078125 0  0.25 0.0078125 0  0.2578125 0.0078125 0  0.265625 0.0078125 0  0.2734375 0.0078125 0  0.28125 0.0078125 0  0.2890625 0.0078125 0  0.296875 0.0078125 0  0.3046875 0.0078125 0  0.3125 0.0078125 0  0.3203125 0.0078125 0  0.328125 0.0078125 0  0.3359375 0.0078125 0  0.34375 0.0078125 0  0.3515625 0.0078125 0  0.359375 0.0078125 0  0.3671875 0.0078125 0  0.375 0.0078125 0  0.3828125 0.0078125 0  0.390625 0.0078125 0  0.3984375 0.0078125 0  0.40625 0.0078125 0  0.4140625 0.0078125 0  0.421875 0.0078125 0  0.4296875 0.0078125 0  0.4375 0.0078125 0  0.4453125 0.0078125 0  0.453125 0.0078125 0  0.4609375 0.0078125 0  0.46875 0.0078125 0  0.4765625 0.0078125 0  0.484375 0.0078125 0  0.4921875 0.0078125 0  0.5 0.0078125 0  0.5078125 0.0078125 0  0.515625 0.0078125 0  0.5234375 0.0078125 0  0.53125 0.0078125 0  0.5390625 0.0078125 0  0.546875 0.0078125 0  0.5546875 0.0078125 0  0.5625 0.0078125 0  0.5703125 0.0078125 0  0.578125 0.0078125 0  0.5859375 0.0078125 0  0.59375 0.0078125 0  0.6015625 0.0078125 0  0.609375 0.0078125 0  0.6171875 0.0078125 0  0.625 0.0078125 0  0.6328125 0.0078125 0  0.640625 0.0078125 0  0.6484375 0.0078125 0  0.65625 0.0078125 0  0.6640625 0.0078125 0  0.671875 0.0078125 0  0.6796875 0.0078125 0  0.6875 0.0078125 0  0.6953125 0.0078125 0  0.703125 0.0078125 0  0.7109375 0.0078125 0  0.71875 0.0078125 0  0.7265625 0.0078125 0  0.734375 0.0078125 0  0.7421875 0.0078125 0  0.75 0.0078125 0  0.7578125 0.0078125 0  0.765625 0.0078125 0  0.7734375 0.0078125 0  0.78125 0.0078125 0  0.7890625 0.0078125 0  0.796875 0.0078125 0  0.8046875 0.0078125 0  0.8125 0.0078125 0  0.8203125 0.0078125 0  0.828125 0.0078125 0  0.8359375 0.0078125 0  0.84375 0.0078125 0  0.8515625 0.0078125 0  0.859375 0.0078125 0  0.8671875 0.0078125 0  0.875 0.0078125 0  0.8828125 0.0078125 0  0.890625 0.0078125 0  0.8984375 0.0078125 0  0.90625 0.0078125 0  0.9140625 0.0078125 0  0.921875 0.0078125 0  0.9296875 0.0078125 0  0.9375 0.0078125 0  0.9453125 0.0078125 0  0.953125 0.0078125 0  0.9609375 0.0078125 0  0.96875 0.0078125 0  0.9765625 0.0078125 0  0.984375 0.0078125 0  0.9921875 0.0078125 0  1 0.0078125 0  0 0.015625 0  0.0078125 0.015625 0  0.015625 0.015625 0  0.0234375 0.015625 0  0.03125 0.015625 0  0.0390625 0.015625 0  0.046875 0.015625 0  0.0546875 0.015625 0  0.0625 0.015625 0  0.0703125 0.015625 0  0.078125 0.015625 0  0.0859375 0.015625 0  0.09375 0.015625 0  0.1015625 0.015625 0  0.109375 0.015625 0  0.1171875 0.015625 0  0.125 0.015625 0  0.1328125 0.015625 0  0.140625 0.015625 0  0.1484375 0.015625 0  0.15625 0.015625 0  0.1640625 0.015625 0  0.171875 0.015625 0  0.1796875 0.015625 0  0.1875 0.015625 0  0.1953125 0.015625 0  0.203125 0.015625 0  0.2109375 0.015625 0  0.21875 0.015625 0  0.2265625 0.015625 0  0.234375 0.015625 0  0.2421875 0.015625 0  0.25 0.015625 0  0.2578125 0.015625 0  0.265625 0.015625 0  0.2734375 0.015625 0  0.28125 0.015625 0  0.2890625 0.015625 0  0.296875 0.015625 0  0.3046875 0.015625 0  0.3125 0.015625 0  0.3203125 0.015625 0  0.328125 0.015625 0  0.3359375 0.015625 0  0.34375 0.015625 0  0.3515625 0.015625 0  0.359375 0.015625 0  0.3671875 0.015625 0  0.375 0.015625 0  0.3828125 0.015625 0  0.390625 0.015625 0  0.3984375 0.015625 0  0.40625 0.015625 0  0.4140625 0.015625 0  0.421875 0.015625 0  0.4296875 0.015625 0  0.4375 0.015625 0  0.4453125 0.015625 0  0.453125 0.015625 0  0.4609375 0.015625 0  0.46875 0.015625 0  0.4765625 0.015625 0  0.484375 0.015625 0  0.4921875 0.015625 0  0.5 0.015625 0  0.5078125 0.015625 0  0.515625 0.015625 0  0.5234375 0.015625 0  0.53125 0.015625 0  0.5390625 0.015625 0  0.546875 0.015625 0  0.5546875 0.015625 0  0.5625 0.015625 0  0.5703125 0.015625 0  0.578125 0.015625 0  0.5859375 0.015625 0  0.59375 0.015625 0  0.6015625 0.015625 0  0.609375 0.015625 0  0.6171875 0.015625 0  0.625 0.015625 0  0.6328125 0.015625 0  0.640625 0.015625 0  0.6484375 0.015625 0  0.65625 0.015625 0  0.6640625 0.015625 0  0.671875 0.015625 0  0.6796875 0.015625 0  0.6875 0.015625 0  0.6953125 0.015625 0  0.703125 0.015625 0  0.7109375 0.015625 0  0.71875 0.015625 0  0.7265625 0.015625 0  0.734375 0.015625 0  0.7421875 0.015625 0  0.75 0.015625 0  0.7578125 0.015625 0  0.765625 0.015625 0  0.7734375 0.015625 0  0.78125 0.015625 0  0.7890625 0.015625 0  0.796875 0.015625 0  0.8046875 0.015625 0  0.8125 0.015625 0  0.8203125 0.015625 0  0.828125 0.015625 0  0.8359375 0.015625 0  0.84375 0.015625 0  0.8515625 0.015625 0  0.859375 0.015625 0  0.8671875 0.015625 0  0.875 0.015625 0  0.8828125 0.015625 0  0.890625 0.015625 0  0.8984375 0.015625 0  0.90625 0.015625 0  0.9140625 0.015625 0  0.921875 0.015625 0  0.9296875 0.015625 0  0.9375 0.015625 0  0.9453125 0.015625 0  0.953125 0.015625 0  0.9609375 0.015625 0  0.96875 0.015625 0  0.9765625 0.015625 0  0.984375 0.015625 0  0.9921875 0.015625 0  1 0.015625 0  0 0.0234375 0  0.0078125 0.0234375 0  0.015625 0.0234375 0  0.0234375 0.0234375 0  0.03125 0.0234375 0  0.0390625 0.0234375 0  0.046875 0.0234375 0  0.0546875 0.0234375 0  0.0625 0.0234375 0  0.0703125 0.0234375 0  0.078125 0.0234375 0  0.0859375 0.0234375 0  0.09375 0.0234375 0  0.1015625 0.0234375 0  0.109375 0.0234375 0  0.1171875 0.0234375 0  0.125 0.0234375 0  0.1328125 0.0234375 0  0.140625 0.0234375 0  0.1484375 0.0234375 0  0.15625 0.0234375 0  0.1640625 0.0234375 0  0.171875 0.0234375 0  0.1796875 0.0234375 0  0.1875 0.0234375 0  0.1953125 0.0234375 0  0.203125 0.0234375 0  0.2109375 0.0234375 0  0.21875 0.0234375 0  0.2265625 0.0234375 0  0.234375 0.0234375 0  0.2421875 0.0234375 0  0.25 0.0234375 0  0.2578125 0.0234375 0  0.265625 0.0234375 0  0.2734375 0.0234375 0  0.28125 0.0234375 0  0.2890625 0.0234375 0  0.296875 0.0234375 0  0.3046875 0.0234375 0  0.3125 0.0234375 0  0.3203125 0.0234375 0  0.328125 0.0234375 0  0.3359375 0.0234375 0  0.34375 0.0234375 0  0.3515625 0.0234375 0  0.359375 0.0234375 0  0.3671875 0.0234375 0  0.375 0.0234375 0  0.3828125 0.0234375 0  0.390625 0.0234375 0  0.3984375 0.0234375 0  0.40625 0.0234375 0  0.4140625 0.0234375 0  0.421875 0.0234375 0  0.4296875 0.0234375 0  0.4375 0.0234375 0  0.4453125 0.0234375 0  0.453125 0.0234375 0  0.4609375 0.0234375 0  0.46875 0.0234375 0  0.4765625 0.0234375 0  0.484375 0.0234375 0  0.4921875 0.0234375 0  0.5 0.0234375 0  0.5078125 0.0234375 0  0.515625 0.0234375 0  0.5234375 0.0234375 0  0.53125 0.0234375 0  0.5390625 0.0234375 0  0.546875 0.0234375 0  0.5546875 0.0234375 0  0.5625 0.0234375 0  0.5703125 0.0234375 0  0.578125 0.0234375 0  0.5859375 0.0234375 0  0.59375 0.0234375 0  0.6015625 0.0234375 0  0.609375 0.0234375 0  0.6171875 0.0234375 0  0.625 0.0234375 0  0.6328125 0.0234375 0  0.640625 0.0234375 0  0.6484375 0.0234375 0  0.65625 0.0234375 0  0.6640625 0.0234375 0  0.671875 0.0234375 0  0.6796875 0.0234375 0  0.6875 0.0234375 0  0.6953125 0.0234375 0  0.703125 0.0234375 0  0.7109375 0.0234375 0  0.71875 0.0234375 0  0.7265625 0.0234375 0  0.734375 0.0234375 0  0.7421875 0.0234375 0  0.75 0.0234375 0  0.7578125 0.0234375 0  0.765625 0.0234375 0  0.7734375 0.0234375 0  0.78125 0.0234375 0  0.7890625 0.0234375 0  0.796875 0.0234375 0  0.8046875 0.0234375 0  0.8125 0.0234375 0  0.8203125 0.0234375 0  0.828125 0.0234375 0  0.8359375 0.0234375 0  0.84375 0.0234375 0  0.8515625 0.0234375 0  0.859375 0.0234375 0  0.8671
[...]
<PointData  Scalars="v_sol"> 
<DataArray  type="Float64"  Name="v_sol"  format="ascii">3.0818347388455386e-10  1.5568074674204071e-07  3.0731302270098114e-07  4.5514635481781550e-07  5.9912578925102411e-07  7.3919649085050719e-07  8.7530476394286967e-07  1.0073978407047184e-06  1.1354240010808498e-06  1.2593326053169019e-06  1.3790741513973781e-06  1.4946003273444755e-06  1.6058640664553535e-06  1.7128196033409674e-06  1.8154225313772779e-06  1.9136298614259250e-06  2.0074000818943120e-06  2.0966932201492681e-06  2.1814709053039832e-06  2.2616964324124242e-06  2.3373348280845112e-06  2.4083529175533068e-06  2.4747193932194274e-06  2.5364048846969827e-06  2.5933820303838654e-06  2.6456255505923478e-06  2.6931123222476031e-06  2.7358214552128536e-06  2.7737343702280735e-06  2.8068348785269973e-06  2.8351092631406460e-06  2.8585463619213327e-06  2.8771376523143498e-06  2.8908773379098150e-06  2.8997624367978469e-06  2.9037928717754956e-06  2.9029715624142173e-06  2.8973045190319236e-06  2.8868009385958613e-06  2.8714733025977413e-06  2.8513374769144882e-06  2.8264128137276627e-06  2.7967222554749002e-06  2.7622924409064780e-06  2.7231538133269607e-06  2.6793407309409626e-06  2.6308915794151522e-06  2.5778488867317952e-06  2.5202594402719464e-06  2.4581744062377589e-06  2.3916494514047289e-06  2.3207448673291124e-06  2.2455256968550111e-06  2.1660618632893580e-06  2.0824283019325755e-06  1.9947050941390152e-06  1.9029776041727213e-06  1.8073366184777066e-06  1.7078784877215154e-06  1.6047052715991994e-06  1.4979248863208380e-06  1.3876512549380664e-06  1.2740044605673629e-06  1.1571109024606941e-06  1.0371034550451476e-06  9.1412162990086747e-07  7.8831174094679464e-07  6.5982707249585475e-07  5.2882805058484451e-07  3.9548241750208812e-07  2.5996540942641252e-07  1.2245993755082567e-07  -1.6843227669363373e-08  -1.5774526865495436e-07  -3.0003912961827888e-07  -4.4350932172278449e-07  -5.8793172495809252e-07  -7.3307338618493147e-07  -8.7869231362582893e-07  -1.0245372675652233e-06  -1.1703475473516168e-06  -1.3158527744487142e-06  -1.4607726716558330e-06  -1.6048168383793983e-06  -1.7476845217856272e-06  -1.8890643839549972e-06  -2.0286342649124198e-06  -2.1660609412402469e-06  -2.3009998808028128e-06  -2.4330949925890471e-06  -2.5619783727179008e-06  -2.6872700455017160e-06  -2.8085777002595289e-06  -2.9254964233191582e-06  -3.0376084254511817e-06  -3.1444827645693830e-06  -3.2456750634176952e-06  -3.3407272225549568e-06  -3.4291671283032754e-06  -3.5105083555645873e-06  -3.5842498655561841e-06  -3.6498756984426612e-06  -3.7068546604694887e-06  -3.7546400058581284e-06  -3.7926691133517366e-06  -3.8203631569926418e-06  -3.8371267714522011e-06  -3.8423477117102901e-06  -3.8353965067237121e-06  -3.8156261075095770e-06  -3.7823715290767119e-06  -3.7349494863850414e-06  -3.6726580241372005e-06  -3.5947761404288699e-06  -3.5005634039743241e-06  -3.3892595649538842e-06  -3.2600841594193281e-06  -3.1122361070211257e-06  -2.9448933019573439e-06  -2.7572121977217370e-06  -2.5483273826042384e-06  -2.3173511568833595e-06  -2.0633730705759057e-06  -1.7854595746646007e-06  -1.4826532142373953e-06  -1.1539734974477219e-06  -7.9841147146205018e-07  -4.1494775706227440e-07  -2.4829748418907783e-09  -1.5423173685137411e-09  -7.7911157400291965e-07  -1.5379623890210206e-06  -2.2778012114727175e-06  -2.9983530228849847e-06  -3.6993433982615866e-06  -4.3805036149425956e-06  -5.0415695940210739e-06  -5.6822825000216284e-06  -6.3023889039809557e-06  -6.9016410707487494e-06  -7.4797972207977225e-06  -8.0366218066189278e-06  -8.5718857931978310e-06  -9.0853669455096700e-06  -9.5768501224103111e-06  -1.0046127577195322e-05  -1.0492999264949221e-05  -1.0917273156778012e-05  -1.1318765561057458e-05  -1.1697301451816768e-05  -1.2052714804368034e-05  -1.2384848938368129e-05  -1.2693556868326450e-05  -1.2978701661813919e-05  -1.3240156805435719e-05  -1.3477806578669867e-05  -1.3691546435820911e-05  -1.3881283396102028e-05  -1.4046936442041339e-05  -1.4188436926418030e-05  -1.4305728987706335e-05  -1.4398769974360263e-05  -1.4467530877948935e-05  -1.4511996775347211e-05  -1.4532167280143270e-05  -1.4528057003455538e-05  -1.4499696024169814e-05  -1.4447130368916382e-05  -1.4370422501856407e-05  -1.4269651824533300e-05  -1.4144915185746440e-05  -1.3996327402053242e-05  -1.3824021788233222e-05  -1.3628150699241020e-05  -1.3408886082273999e-05  -1.3166420040223390e-05  -1.2900965406273617e-05  -1.2612756330085868e-05  -1.2302048875300844e-05  -1.1969121628875906e-05  -1.1614276322677153e-05  -1.1237838466717727e-05  -1.0840157995386884e-05  -1.0421609925909053e-05  -9.9825950292094073e-06  -9.5235405146595962e-06  -9.0449007273196145e-06  -8.5471578585708734e-06  -8.0308226709907928e-06  -7.4964352362777186e-06  -6.9445656876305916e-06  -6.3758149867560539e-06  -5.7908157045038600e-06  -5.1902328172457554e-06  -4.5747645172448117e-06  -3.9451430393203001e-06  -3.3021355020174340e-06  -2.6465447650297474e-06  -1.9792103024149508e-06  -1.3010090919510699e-06  -6.1285652123283202e-07  8.4292690047943057e-08  7.8944354994472350e-07  1.5015598380237258e-06  2.2195631303973760e-06  2.9423318078076345e-06  3.6687000454573925e-06  4.3974567840770518e-06  5.1273446827140497e-06  5.8570590526838778e-06  6.5852467721101430e-06  7.3105051803209665e-06  8.0313809541058664e-06  8.7463689617812297e-06  9.4539110981356409e-06  1.0152395098414126e-05  1.0840153330457598e-05  1.1515461567081084e-05  1.2176537734101845e-05  1.2821540639353854e-05  1.3448568676693184e-05  1.4055658508991924e-05  1.4640783726855021e-05  1.5201853484528690e-05  1.5736711112116254e-05  1.6243132703080854e-05  1.6718825677142443e-05  1.7161427319464929e-05  1.7568503292968294e-05  1.7937546125510000e-05  1.8265973672165052e-05  1.8551127548932403e-05  1.8790271541046153e-05  1.8980589984157026e-05  1.9119186116816807e-05  1.9203080405311053e-05  1.9229208841026895e-05  1.9194421206704758e-05  1.9095479315391847e-05  1.8929055218872461e-05  1.8691729385078104e-05  1.8379988846063011e-05  1.7990225314061644e-05  1.7518733266191023e-05  1.6961707996623604e-05  1.6315243637119796e-05  1.5575331143598256e-05  1.4737856249151334e-05  1.3798597385725489e-05  1.2753223560163279e-05  1.1597292237128876e-05  1.0326247028021301e-05  8.9354159411521400e-06  7.4200073518774975e-06  5.7751143370953766e-06  3.9956875522933854e-06  2.0766254597085688e-06  1.2426159820870503e-08  -6.9631169975887438e-09  -3.5174641372790559e-06  -6.9434568096141150e-06  -1.0283615823279535e-05  -1.3536699542806769e-05  -1.6701469015455432e-05  -1.9776711036440753e-05  -2.2761233365137613e-05  -2.5653867434409658e-05  -2.8453469085553705e-05  -3.1158919866018624e-05  -3.3769128211036915e-05  -3.6283030691642476e-05  -3.8699593280883910e-05  -4.1017812651801535e-05  -4.3236717504240799e-05  -4.5355369921813771e-05  -4.7372866759488056e-05  -4.9288341062249291e-05  -5.1100963515448330e-05  -5.2809943927353641e-05  -5.4414532744468512e-05  -5.5914022600262394e-05  -5.7307749897720965e-05  -5.8595096426485581e-05  -5.9775491015097386e-05  -6.0848411218872292e-05  -6.1813385044201831e-05  -6.2669992709686351e-05  -6.3417868444959100e-05  -6.4056702327606633e-05  -6.4586242159069335e-05  -6.5006295379966140e-05  -6.5316731025637020e-05  -6.5517481722562464e-05  -6.5608545726330918e-05  -6.5589989001972683e-05  -6.5461947346976557e-05  -6.5224628558434953e-05  -6.4878314644108400e-05  -6.4423364079006611e-05  -6.3860214107811994e-05  -6.3189383093833356e-05  -6.2411472915402513e-05  -6.1527171410973884e-05  -6.0537254872567279e-05  -5.9442590589408817e-05  -5.8244139442200591e-05  -5.6942958549055239e-05  -5.5540203963359521e-05  -5.4037133425209294e-05  -5.2435109166685872e-05  -5.0735600771969629e-05  -4.8940188093937489e-05  -4.7050564226846361e-05  -4.5068538536273047e-05  -4.2996039749326138e-05  -4.0835119102713848e-05  -3.8587953551901686e-05  -3.6256849042180867e-05  -3.3844243841682418e-05  -3.1352711937719783e-05  -2.8784966498545412e-05  -2.6143863399638135e-05  -2.3432404817001008e-05  -2.0653742887873434e-05  -1.7811183441004739e-05  -1.4908189795524302e-05  -1.1948386631148859e-05  -8.9355639313308487e-06  -5.8736809977082887e-06  -2.7668705411031312e-06  3.8055715394138830e-07  3.5641099864175990e-06  6.7791097194422480e-06  1.0020687580374683e-05  1.3283779781929105e-05  1.6563122961102309e-05  1.9853249534516210e-05  2.3148482970783161e-05  2.6442932976588681e-05  2.9730490596308890e-05  3.3004823222534945e-05  3.6259369519264565e-05  3.9487334250909174e-05  4.2681683022098224e-05  4.5835136921809371e-05  4.8940167072442600e-05  5.1988989084080024e-05  5.4973557406778324e-05  5.7885559587730454e-05  6.0716410424050742e-05  6.3457246013763938e-05  6.6098917702835127e-05  6.8631985925648279e-05  7.1046713938740751e-05  7.3333061444752861e-05  7.5480678105400731e-05  7.7478896943313451e-05  7.9316727627956176e-05  8.0982849646353048e-05  8.2465605357051247e-05  8.3752992922676405e-05  8.4832659122721304e-05  8.5691892043520421e-05  8.6317613641825606e-05  8.6696372182641854e-05  8.6814334548791528e-05  8.6657278418171433e-05  8.6210584310281207e-05  8.5459227497284042e-05  8.4387769778300080e-05  8.2980351115599359e-05  8.1220681130106796e-05  7.9092030453960609e-05  7.6577221937926894e-05  7.3658621712446653e-05  7.0318130099714056e-05  6.6537172370806475e-05  6.2296689363435870e-05  5.7577127891331017e-05  5.2358431190459636e-05  4.6620028475281971e-05  4.0340827059067347e-05  3.3499194120021326e-05  2.6072976346660899e-05  1.8039377359213784e-05  9.3753652335107402e-06  5.6100530431824282e-08  -1.5776189622659120e-08  -7.9694477973645468e-06  -1.5731650569181943e-05  -2.3299381755542890e-05  -3.0669828200082978e-05  -3.7840182828015358e-05  -4.4807696904770186e-05  -5.1569669194257090e-05  -5.8123452097539539e-05  -6.4466453317420876e-05  -7.0596138798706577e-05  -7.6510035405292560e-05  -8.2205733747775812e-05  -8.7680891052312583e-05  -9.2933234101396782e-05  -9.7960562239965784e-05  -1.0276075044990994e-04  -1.0733175249383862e-04  -1.1167160412936380e-04  -1.1577842639509019e-04  -1.1965042896962537e-04  -1.2328591360482864e-04  -1.2668327763466731e-04  -1.2984101756085184e-04  -1.3275773271670391e-04  -1.3543212901060664e-04  -1.3786302275027961e-04  -1.4004934454931933e-04  -1.4199014331757161e-04  -1.4368459033653277e-04  -1.4513198342129555e-04  -1.4633175117072017e-04  -1.4728345730690977e-04  -1.4798680510592224e-04  -1.4844164192096045e-04  -1.4864796379983680e-04  -1.4860592019817282e-04  -1.4831581878967692e-04  -1.4777813037601673e-04  -1.4699349389654987e-04  -1.4596272154090108e-04  -1.4468680396554850e-04  -1.4316691561575522e-04  -1.4140442015535300e-04  -1.3940087600597558e-04  -1.3715804199677860e-04  -1.3467788312754254e-04  -1.3196257644651813e-04  -1.2901451704481492e-04  -1.2583632416937599e-04  -1.2243084745663772e-04  -1.1880117328831094e-04  -1.1495063127202414e-04  -1.1088280084852953e-04  -1.0660151802715481e-04  -1.0211088225159454e-04  -9.7415263399825105e-05  -9.2519308917572634e-05  -8.7427951089236937e-05  -8.2146414448554871e-05  -7.6680223330513077e-05  -7.1035209566661510e-05  -6.5217520327575537e-05  -5.9233626112789084e-05  -5.3090328892148299e-05  -4.6794770399769552e-05  -4.0354440585207878e-05  -3.3777186220814321e-05  -2.7071219670727140e-05  -2.0245127823832905e-05  -1.3307881190519194e-05  -6.2688431702329126e-06  8.6222051177975550e-07  8.0751321929943098e-06  1.5359292485831358e-05  2.2703670310463710e-05  3.0096792745895327e-05  3.7526734696283350e-05  4.4981108368003199e-05  5.2447052558225554e-05  5.9911221747756648e-05  6.7359774998590358e-05  7.4778364649801329e-05  8.2152124813826072e-05  8.9465659662233906e-05  9.6703031506755916e-05  1.0384774866471063e-04  1.1088275310992869e-04  1.1779040790557140e-04  1.2455248441159777e-04  1.3115014927008437e-04  1.3756395115923671e-04  1.4377380731420798e-04  1.4975898981300253e-04  1.5549811162151114e-04  1.6096911239503911e-04  1.6614924403328854e-04  1.7101505598278566e-04  1.7554238028653495e-04  1.7970631637305410e-04  1.8348121558354894e-04  1.8684066543304864e-04  1.8975747359958111e-04  1.9220365163955853e-04  1.9415039842491616e-04  1.9556808329552678e-04  1.9642622892580716e-04  1.9669349389924755e-04  1.9633765498667017e-04  1.9532558912465972e-04  1.9362325508895739e-04  1.9119567485812065e-04  1.8800691466347712e-04  1.8402006572047904e-04  1.7919722463649720e-04  1.7349947349022503e-04  1.6688685957778806e-04  1.5931837482311797e-04  1.5075193483659333e-04  1.4114435765738692e-04  1.3045134202418942e-04  1.1862744573032418e-04  1.0562606195882725e-04  9.1399401435586904e-05  7.5898451104242703e-05  5.9073018665345679e-05  4.0871454800933780e-05  2.1241576577692632e-05  1.2710583525386688e-07  -2.7814969166626291e-08  -1.4050920448203003e-05  -2.7736447569774879e-05  -4.1079102168909567e-05  -5.4073924364759041e-05  -6.6715965002573930e-05  -7.9000377790848324e-05  -9.0922400183597314e-05  -1.0247736420329360e-04  -1.1366069937506087e-04  -1.2446793791059252e-04  -1.3489471942795892e-04  -1.4493679593697659e-04  -1.5459003689722244e-04  -1.6385043440296165e-04  -1.7271410848311876e-04  -1.8117731252202375e-04  -1.8923643880213942e-04  -1.9688802417115682e-04  -2.0412875583552417e-04  -2.1095547728274162e-04  -2.1736519433448049e-04  -2.2335508133304219e-04  -2.2892248746322655e-04  -2.3406494321205276e-04  -2.3878016696885675e-04  -2.4306607176780725e-04  -2.4692077217560457e-04  -2.5034259132687117e-04  -2.5333006810943976e-04  -2.5588196450234492e-04  -2.5799727306920396e-04  -2.5967522460921519e-04  -2.6091529596893222e-04  -2.6171721801705359e-04  -2.6208098378553008e-04  -2.6200685677924722e-04  -2.6149537945737480e-04  -2.6054738188939405e-04  -2.5916399058828504e-04  -2.5734663752423711e-04  -2.5509706932197776e-04  -2.5241735664402205e-04  -2.4930990376392342e-04  -2.4577745833209708e-04  -2.4182312133741676e-04  -2.3745035726777122e-04  -2.3266300447327495e-04  -2.2746528573527121e-04  -2.2186181904359809e-04  -2.1585762858757307e-04  -2.0945815596180452e-04  -2.0266927159211926e-04  -1.9549728638457151e-04  -1.8794896360077183e-04  -1.8003153096355376e-04  -1.7175269299751241e-04  -1.6312064360652425e-04  -1.5414407889329751e-04  -1.4483221022473859e-04  -1.3519477754670082e-04  -1.2524206295207651e-04  -1.1498490450711684e-04  -1.0443471033900501e-04  -9.3603472989621270e-05  -8.2503784038932918e-05  -7.1148849004559612e-05  -5.9552502517915112e-05  -4.7729223784979090e-05  -3.5694152335097743e-05  -2.3463104060781821e-05  -1.1052587556046536e-05  1.5201792450546362e-06  1.4237252122167005e-05  2.7079943312547716e-05  4.0028803937554525e-05  5.3063606109009353e-05  6.6163324709753412e-05  7.9306118841377415e-05  9.2469312938164096e-05  1.0562937753713075e-04  1.1876190970267499e-04  1.3184161309785444e-04  1.4484227769983563e-04  1.5773675914902983e-04  1.7049695773289566e-04  1.8309379699243080e-04  1.9549720194947783e-04  2.0767607694874567e-04  2.1959828310482910e-04  2.3123061535466511e-04  2.4253877910375920e-04  2.5348736646189527e-04  2.6403983206285333e-04  2.7415846846111337e-04  2.8380438109833005e-04  2.9293746283514570e-04  3.0151636803840199e-04  3.0949848622169990e-04  3.1683991522716225e-04  3.2349543394569386e-04  3.2941847456701556e-04  3.3456109435189228e-04  3.3887394692052767e-04  3.4230625304992873e-04  3.4480577097095234e-04  3.4631876616003280e-04  3.4678998061606829e-04  3.4616260161573792e-04  3.4437822993962030e-04  3.4137684756023077e-04  3.3709678478480707e-04  3.3147468684426766e-04  3.2444547992063397e-04  3.1594233660411095e-04  3.0589664077122856e-04  2.9423795187510351e-04  2.8089396864375803e-04  2.6579049215859596e-04  2.4885138837509447e-04  2.2999854981119674e-04  2.0915185738665839e-04  1.8622913869693409e-04  1.6114613655192873e-04  1.3381643610759687e-04  1.0415154341149515e-04  7.2060395627753144e-05  3.7450989142585191e-05  2.2410008143705826e-07  -4.2913292038791967e-08  -2.1677943308398715e-05  -4.2792153070959804e-05  -6.3377374651481659e-05  -8.3425955870403319e-05  -1.0293026110049027e-04  -1.2188281341687019e-04  -1.4027626509983691e-04  -1.5810341433221135e-04  -1.7535720972565861e-04  -1.9203075831832203e-04  -2.0811733285643649e-04  -2.2361037948575302e-04  -2.3850352555508704e-04  -2.5279058761564952e-04  -2.6646557959788370e-04  -2.7952272117469265e-04  -2.9195644631280833e-04  -3.0376141201604904e-04  -3.1493250726367207e-04  -3.2546486214734492e-04  -3.3535385720999373e-04  -3.4459513299037138e-04  -3.5318459977643315e-04  -3.6111844757161221e-04  -3.6839315627743344e-04  -3.7500550609593359e-04  -3.8095258815625145e-04  -3.8623181536870952e-04  -3.9084093351052462e-04  -3.9477803254695280e-04  -3.9804155819200761e-04  -4.0063032371275215e-04  -4.0254352198122696e-04  -4.0378073777817250e-04  -4.0434196035318268e-04  -4.0422759624502748e-04  -4.0343848236672073e-04  -4.0197589936023949e-04  -3.9984158522441440e-04  -3.9703774922145082e-04  -3.9356708606667814e-04  -3.8943279040511147e-04  -3.8463857158127062e-04  -3.7918866870600119e-04  -3.7308786602515759e-04  -3.6634150859583630e-04  -3.5895551827459901e-04  -3.5093641002338004e-04  -3.4229130853714380e-04  -3.3302796520054032e-04  -3.2315477537666281e-04  -3.1268079603508813e-04  -3.0161576372379886e-04  -2.8997011289096764e-04  -2.7775499456171885e-04  -2.6498229537702002e-04  -2.5166465699857357e-04  -2.3781549588712360e-04  -2.2344902345953970e-04  -2.0858026663126612e-04  -1.9322508874938240e-04  -1.7740021092371629e-04  -1.6112323376171419e-04  -1.4441265951311042e-04  -1.2728791463199429e-04  -1.0976937276280329e-04  -9.1878378155253452e-05  -7.3637269517039532e-05  -5.5069404311280118e-05  -3.6199183503143335e-05  -1.7052076766392114e-05  2.3453518458153151e-06  2.1965417756537893e-05  4.1779289241865913e-05  6.1756960318509700e-05  8.1867223137070731e-05  1.0207763987267305e-04  1.2235451410277386e-04  1.4266286166904953e-04  1.6296638100930845e-04  1.8322742295623961e-04  2.0340695999174213e-04  2.2346455495047423e-04  2.4335832916071553e-04  2.6304493001938506e-04  2.8247949798617284e-04  3.0161563299255706e-04  3.2040536025536808e-04  3.3879909548320232e-04  3.5674560947116240e-04  3.7419199207097128e-04  3.9108361552741655e-04  4.0736409717205232e-04  4.2297526146559464e-04  4.3785710137542400e-04  4.5194773908281666e-04  4.6518338600529780e-04  4.7749830212744072e-04  4.8882475462669762e-04  4.9909297578528333e-04  5.0823112017708090e-04  5.1616522111778268e-04  5.2281914636841305e-04  5.2811455308048201e-04  5.3197084197050481e-04  5.3430511071395818e-04  5.3503210654555879e-04  5.3406417805435284e-04  5.3131122616255193e-04  5.2668065427447365e-04  5.2007731758365228e-04  5.1140347152615830e-04  5.0055871936717489e-04  4.8743995890748433e-04  4.7194132829736426e-04  4.5395415094292874e-04  4.3336687949925828e-04  4.1006503890758753e-04  3.8393116857136667e-04  3.5484476324878556e-04  3.2268221417811212e-04  2.8731674470124996e-04  2.4861836172732641e-04  2.0645374330589052e-04  1.6068635982072649e-04  1.1117571833994770e-04  5.7779874517532910e-05  3.4574451853395634e-07  -6.0908359003143217e-08  -3.0768277068265338e-05  -6.0736427079908604e-05  -8.9953765342684028e-05  -1.1840943083447306e-04  -1.4609258603014383e-04  -1.7299261865993837e-04  -1.9909909984127343e-04  -2.2440180777748146e-04  -2.4889073418156996e-04  -2.7255609562733209e-04  -2.9538834388418577e-04  -3.1737817683379668e-04  -3.3851654954585920e-04  -3.5879468563180015e-04  -3.7820408885043703e-04  -3.9673655497816159e-04  -4.1438418394623347e-04  -4.3113939225032931e-04  -4.4699492563716412e-04  -4.6194387207279346e-04  -4.7597967499767724e-04  -4.8909614687356556e-04  -5.0128748302682307e-04  -5.1254827579395726e-04  -5.2287352897403448e-04  -5.3225867259344890e-04  -5.4069957798831558e-04  -5.4819257321033507e-04  -5.5473445876094848e-04  -5.6032252365990204e-04  -5.6495456185386953e-04  -5.6862888897049092e-04  -5.7134435942437763e-04  -5.7310038388000222e-04  -5.7389694707888478e-04  -5.7373462603595995e