<?xml version="1.0"?>
<VTKFile type="UnstructuredGrid"  version="0.1"  >
<UnstructuredGrid>
<Piece  NumberOfPoints="16641" NumberOfCells="16384">
<Points>
<DataArray  type="Float64"  NumberOfComponents="3"  format="ascii">0 0 0  0.0078125 0 0  0.015625 0 0  0.0234375 0 0  0.03125 0 0  0.0390625 0 0  0.046875 0 0  0.0546875 0 0  0.0625 0 0  0.0703125 0 0  0.078125 0 0  0.0859375 0 0  0.09375 0 0  0.1015625 0 0  0.109375 0 0  0.1171875 0 0  0.125 0 0  0.1328125 0 0  0.140625 0 0  0.1484375 0 0  0.15625 0 0  0.1640625 0 0  0.171875 0 0  0.1796875 0 0  0.1875 0 0  0.1953125 0 0  0.203125 0 0  0.2109375 0 0  0.21875 0 0  0.2265625 0 0  0.234375 0 0  0.2421875 0 0  0.25 0 0  0.2578125 0 0  0.265625 0 0  0.2734375 0 0  0.28125 0 0  0.2890625 0 0  0.296875 0 0  0.3046875 0 0  0.3125 0 0  0.3203125 0 0  0.328125 0 0  0.3359375 0 0  0.34375 0 0  0.3515625 0 0  0.359375 0 0  0.3671875 0 0  0.375 0 0  0.3828125 0 0  0.390625 0 0  0.3984375 0 0  0.40625 0 0  0.4140625 0 0  0.421875 0 0  0.4296875 0 0  0.4375 0 0  0.4453125 0 0  0.453125 0 0  0.4609375 0 0  0.46875 0 0  0.4765625 0 0  0.484375 0 0  0.4921875 0 0  0.5 0 0  0.5078125 0 0  0.515625 0 0  0.5234375 0 0  0.53125 0 0  0.5390625 0 0  0.546875 0 0  0.5546875 0 0  0.5625 0 0  0.5703125 0 0  0.578125 0 0  0.5859375 0 0  0.59375 0 0  0.6015625 0 0  0.609375 0 0  0.6171875 0 0  0.625 0 0  0.6328125 0 0  0.640625 0 0  0.6484375 0 0  0.65625 0 0  0.6640625 0 0  0.671875 0 0  0.6796875 0 0  0.6875 0 0  0.6953125 0 0  0.703125 0 0  0.7109375 0 0  0.71875 0 0  0.7265625 0 0  0.734375 0 0  0.7421875 0 0  0.75 0 0  0.7578125 0 0  0.765625 0 0  0.7734375 0 0  0.78125 0 0  0.7890625 0 0  0.796875 0 0  0.8046875 0 0  0.8125 0 0  0.8203125 0 0  0.828125 0 0  0.8359375 0 0  0.84375 0 0  0.8515625 0 0  0.859375 0 0  0.8671875 0 0  0.875 0 0  0.8828125 0 0  0.890625 0 0  0.8984375 0 0  0.90625 0 0  0.9140625 0 0  0.921875 0 0  0.9296875 0 0  0.9375 0 0  0.9453125 0 0  0.953125 0 0  0.9609375 0 0  0.96875 0 0  0.9765625 0 0  0.984375 0 0  0.9921875 0 0  1 0 0  0 0.0078125 0  0.0078125 0.0078125 0  0.015625 0.0078125 0  0.0234375 0.0078125 0  0.03125 0.0078125 0  0.0390625 0.0078125 0  0.046875 0.0078125 0  0.0546875 0.0078125 0  0.0625 0.0078125 0  0.0703125 0.0078125 0  0.078125 0.0078125 0  0.0859375 0.0078125 0  0.09375 0.0078125 0  0.1015625 0.0078125 0  0.109375 0.0078125 0  0.1171875 0.0078125 0  0.125 0.0078125 0  0.1328125 0.0078125 0  0.140625 0.0078125 0  0.1484375 0.0078125 0  0.15625 0.0078125 0  0.1640625 0.0078125 0  0.171875 0.0078125 0  0.1796875 0.0078125 0  0.1875 0.0078125 0  0.1953125 0.0078125 0  0.203125 0.0078125 0  0.2109375 0.0078125 0  0.21875 0.0078125 0  0.2265625 0.0078125 0  0.234375 0.0078125 0  0.2421875 0.0078125 0  0.25 0.0078125 0  0.2578125 0.0078125 0  0.265625 0.0078125 0  0.2734375 0.0078125 0  0.28125 0.0078125 0  0.2890625 0.0078125 0  0.296875 0.0078125 0  0.3046875 0.0078125 0  0.3125 0.0078125 0  0.3203125 0.0078125 0  0.328125 0.0078125 0  0.3359375 0.0078125 0  0.34375 0.0078125 0  0.3515625 0.0078125 0  0.359375 0.0078125 0  0.3671875 0.0078125 0  0.375 0.0078125 0  0.3828125 0.0078125 0  0.390625 0.0078125 0  0.3984375 0.0078125 0  0.40625 0.0078125 0  0.4140625 0.0078125 0  0.421875 0.0078125 0  0.4296875 0.0078125 0  0.4375 0.0078125 0  0.4453125 0.0078125 0  0.453125 0.0078125 0  0.4609375 0.0078125 0  0.46875 0.0078125 0  0.4765625 0.0078125 0  0.484375 0.0078125 0  0.4921875 0.0078125 0  0.5 0.0078125 0  0.5078125 0.0078125 0  0.515625 0.0078125 0  0.5234375 0.0078125 0  0.53125 0.0078125 0  0.5390625 0.0078125 0  0.546875 0.0078125 0  0.5546875 0.0078125 0  0.5625 0.0078125 0  0.5703125 0.0078125 0  0.578125 0.0078125 0  0.5859375 0.0078125 0  0.59375 0.0078125 0  0.6015625 0.0078125 0  0.609375 0.0078125 0  0.6171875 0.0078125 0  0.625 0.0078125 0  0.6328125 0.0078125 0  0.640625 0.0078125 0  0.6484375 0.0078125 0  0.65625 0.0078125 0  0.6640625 0.0078125 0  0.671875 0.0078125 0  0.6796875 0.0078125 0  0.6875 0.0078125 0  0.6953125 0.0078125 0  0.703125 0.0078125 0  0.7109375 0.0078125 0  0.71875 0.0078125 0  0.7265625 0.0078125 0  0.734375 0.0078125 0  0.7421875 0.0078125 0  0.75 0.0078125 0  0.7578125 0.0078125 0  0.765625 0.0078125 0  0.7734375 0.0078125 0  0.78125 0.0078125 0  0.7890625 0.0078125 0  0.796875 0.0078125 0  0.8046875 0.0078125 0  0.8125 0.0078125 0  0.8203125 0.0078125 0  0.828125 0.0078125 0  0.8359375 0.0078125 0  0.84375 0.0078125 0  0.8515625 0.0078125 0  0.859375 0.0078125 0  0.8671875 0.0078125 0  0.875 0.0078125 0  0.8828125 0.0078125 0  0.890625 0.0078125 0  0.8984375 0.0078125 0  0.90625 0.0078125 0  0.9140625 0.0078125 0  0.921875 0.0078125 0  0.9296875 0.0078125 0  0.9375 0.0078125 0  0.9453125 0.0078125 0  0.953125 0.0078125 0  0.9609375 0.0078125 0  0.96875 0.0078125 0  0.9765625 0.0078125 0  0.984375 0.0078125 0  0.9921875 0.0078125 0  1 0.0078125 0  0 0.015625 0  0.0078125 0.015625 0  0.015625 0.015625 0  0.0234375 0.015625 0  0.03125 0.015625 0  0.0390625 0.015625 0  0.046875 0.015625 0  0.0546875 0.015625 0  0.0625 0.015625 0  0.0703125 0.015625 0  0.078125 0.015625 0  0.0859375 0.015625 0  0.09375 0.015625 0  0.1015625 0.015625 0  0.109375 0.015625 0  0.1171875 0.015625 0  0.125 0.015625 0  0.1328125 0.015625 0  0.140625 0.015625 0  0.1484375 0.015625 0  0.15625 0.015625 0  0.1640625 0.015625 0  0.171875 0.015625 0  0.1796875 0.015625 0  0.1875 0.015625 0  0.1953125 0.015625 0  0.203125 0.015625 0  0.2109375 0.015625 0  0.21875 0.015625 0  0.2265625 0.015625 0  0.234375 0.015625 0  0.2421875 0.015625 0  0.25 0.015625 0  0.2578125 0.015625 0  0.265625 0.015625 0  0.2734375 0.015625 0  0.28125 0.015625 0  0.2890625 0.015625 0  0.296875 0.015625 0  0.3046875 0.015625 0  0.3125 0.015625 0  0.3203125 0.015625 0  0.328125 0.015625 0  0.3359375 0.015625 0  0.34375 0.015625 0  0.3515625 0.015625 0  0.359375 0.015625 0  0.3671875 0.015625 0  0.375 0.015625 0  0.3828125 0.015625 0  0.390625 0.015625 0  0.3984375 0.015625 0  0.40625 0.015625 0  0.4140625 0.015625 0  0.421875 0.015625 0  0.4296875 0.015625 0  0.4375 0.015625 0  0.4453125 0.015625 0  0.453125 0.015625 0  0.4609375 0.015625 0  0.46875 0.015625 0  0.4765625 0.015625 0  0.484375 0.015625 0  0.4921875 0.015625 0  0.5 0.015625 0  0.5078125 0.015625 0  0.515625 0.015625 0  0.5234375 0.015625 0  0.53125 0.015625 0  0.5390625 0.015625 0  0.546875 0.015625 0  0.5546875 0.015625 0  0.5625 0.015625 0  0.5703125 0.015625 0  0.578125 0.015625 0  0.5859375 0.015625 0  0.59375 0.015625 0  0.6015625 0.015625 0  0.609375 0.015625 0  0.6171875 0.015625 0  0.625 0.015625 0  0.6328125 0.015625 0  0.640625 0.015625 0  0.6484375 0.015625 0  0.65625 0.015625 0  0.6640625 0.015625 0  0.671875 0.015625 0  0.6796875 0.015625 0  0.6875 0.015625 0  0.6953125 0.015625 0  0.703125 0.015625 0  0.7109375 0.015625 0  0.71875 0.015625 0  0.7265625 0.015625 0  0.734375 0.015625 0  0.7421875 0.015625 0  0.75 0.015625 0  0.7578125 0.015625 0  0.765625 0.015625 0  0.7734375 0.015625 0  0.78125 0.015625 0  0.7890625 0.015625 0  0.796875 0.015625 0  0.8046875 0.015625 0  0.8125 0.015625 0  0.8203125 0.015625 0  0.828125 0.015625 0  0.8359375 0.015625 0  0.84375 0.015625 0  0.8515625 0.015625 0  0.859375 0.015625 0  0.8671875 0.015625 0  0.875 0.015625 0  0.8828125 0.015625 0  0.890625 0.015625 0  0.8984375 0.015625 0  0.90625 0.015625 0  0.9140625 0.015625 0  0.921875 0.015625 0  0.9296875 0.015625 0  0.9375 0.015625 0  0.9453125 0.015625 0  0.953125 0.015625 0  0.9609375 0.015625 0  0.96875 0.015625 0  0.9765625 0.015625 0  0.984375 0.015625 0  0.9921875 0.015625 0  1 0.015625 0  0 0.0234375 0  0.0078125 0.0234375 0  0.015625 0.0234375 0  0.0234375 0.0234375 0  0.03125 0.0234375 0  0.0390625 0.0234375 0  0.046875 0.0234375 0  0.0546875 0.0234375 0  0.0625 0.0234375 0  0.0703125 0.0234375 0  0.078125 0.0234375 0  0.0859375 0.0234375 0  0.09375 0.0234375 0  0.1015625 0.0234375 0  0.109375 0.0234375 0  0.1171875 0.0234375 0  0.125 0.0234375 0  0.1328125 0.0234375 0  0.140625 0.0234375 0  0.1484375 0.0234375 0  0.15625 0.0234375 0  0.1640625 0.0234375 0  0.171875 0.0234375 0  0.1796875 0.0234375 0  0.1875 0.0234375 0  0.1953125 0.0234375 0  0.203125 0.0234375 0  0.2109375 0.0234375 0  0.21875 0.0234375 0  0.2265625 0.0234375 0  0.234375 0.0234375 0  0.2421875 0.0234375 0  0.25 0.0234375 0  0.2578125 0.0234375 0  0.265625 0.0234375 0  0.2734375 0.0234375 0  0.28125 0.0234375 0  0.2890625 0.0234375 0  0.296875 0.0234375 0  0.3046875 0.0234375 0  0.3125 0.0234375 0  0.3203125 0.0234375 0  0.328125 0.0234375 0  0.3359375 0.0234375 0  0.34375 0.0234375 0  0.3515625 0.0234375 0  0.359375 0.0234375 0  0.3671875 0.0234375 0  0.375 0.0234375 0  0.3828125 0.0234375 0  0.390625 0.0234375 0  0.3984375 0.0234375 0  0.40625 0.0234375 0  0.4140625 0.0234375 0  0.421875 0.0234375 0  0.4296875 0.0234375 0  0.4375 0.0234375 0  0.4453125 0.0234375 0  0.453125 0.0234375 0  0.4609375 0.0234375 0  0.46875 0.0234375 0  0.4765625 0.0234375 0  0.484375 0.0234375 0  0.4921875 0.0234375 0  0.5 0.0234375 0  0.5078125 0.0234375 0  0.515625 0.0234375 0  0.5234375 0.0234375 0  0.53125 0.0234375 0  0.5390625 0.0234375 0  0.546875 0.0234375 0  0.5546875 0.0234375 0  0.5625 0.0234375 0  0.5703125 0.0234375 0  0.578125 0.0234375 0  0.5859375 0.0234375 0  0.59375 0.0234375 0  0.6015625 0.0234375 0  0.609375 0.0234375 0  0.6171875 0.0234375 0  0.625 0.0234375 0  0.6328125 0.0234375 0  0.640625 0.0234375 0  0.6484375 0.0234375 0  0.65625 0.0234375 0  0.6640625 0.0234375 0  0.671875 0.0234375 0  0.6796875 0.0234375 0  0.6875 0.0234375 0  0.6953125 0.0234375 0  0.703125 0.0234375 0  0.7109375 0.0234375 0  0.71875 0.0234375 0  0.7265625 0.0234375 0  0.734375 0.0234375 0  0.7421875 0.0234375 0  0.75 0.0234375 0  0.7578125 0.0234375 0  0.765625 0.0234375 0  0.7734375 0.0234375 0  0.78125 0.0234375 0  0.7890625 0.0234375 0  0.796875 0.0234375 0  0.8046875 0.0234375 0  0.8125 0.0234375 0  0.8203125 0.0234375 0  0.828125 0.0234375 0  0.8359375 0.0234375 0  0.84375 0.0234375 0  0.8515625 0.0234375 0  0.859375 0.0234375 0  0.8671
[...]
<PointData  Scalars="u_sol"> 
<DataArray  type="Float64"  Name="u_sol"  format="ascii">1.9397996390706973e-06  -1.0109224814552710e-05  -2.1659241075864523e-05  -2.3615217459911189e-05  -1.8383867200985924e-05  -7.4691291030139197e-06  7.3882436907573666e-06  2.4505788806745020e-05  4.2201368999167347e-05  5.8952221055371342e-05  7.3550244412251843e-05  8.5221389335865484e-05  9.3672001412709827e-05  9.9060204504267772e-05  1.0191142595476153e-04  1.0300568855964533e-04  1.0326308267274245e-04  1.0364474698274064e-04  1.0507571054019033e-04  1.0838716698803643e-04  1.1427232084509549e-04  1.2325145755238899e-04  1.3564863217503128e-04  1.5158769800650081e-04  1.7101842904410110e-04  1.9377963766911550e-04  2.1968959128888809e-04  2.4864376997142440e-04  2.8069770180763436e-04  3.1610918983582449e-04  3.5531136961441056e-04  3.9883351215287948e-04  4.4721837096400321e-04  5.0096844498440584e-04  5.6048297409473440e-04  6.2599016771130132e-04  6.9750489048059166e-04  7.7483999141252080e-04  8.5760834295595491e-04  9.4515352326871884e-04  1.0364672688226986e-03  1.1300617131973193e-03  1.2239970129484827e-03  1.3158798773017903e-03  1.4027857054033492e-03  1.4813538212985237e-03  1.5478213651004204e-03  1.5980331652464170e-03  1.6275916006647960e-03  1.6320540794423669e-03  1.6071080647220592e-03  1.5487797261704206e-03  1.4536573550859063e-03  1.3191123067275506e-03  1.1435017706022614e-03  9.2634090970620956e-04  6.6843398118410593e-04  3.7195933378126879e-04  4.0508453297481629e-05  -3.2091836319643685e-04  -7.0595141399957010e-04  -1.1069283008185396e-03  -1.5149780028269287e-03  -1.9201977937645645e-03  -2.3115546510818655e-03  -2.6780277496049761e-03  -3.0087168217152894e-03  -3.2904639627877115e-03  -3.5106189688301212e-03  -3.6577292662615004e-03  -3.7213650039681599e-03  -3.6929311057999179e-03  -3.5661879733143100e-03  -3.3379161251631184e-03  -3.0084535712432050e-03  -2.5821608363442976e-03  -2.0676912703755609e-03  -1.4780338590358693e-03  -8.3026057608816045e-04  -1.4494585377226898e-04  5.5476526430220982e-04  1.2446525880241198e-03  1.9002112488750848e-03  2.4966168798239274e-03  3.0124466879765822e-03  3.4356310847926301e-03  3.7538983450107915e-03  3.9605384516287956e-03  4.0562862559695920e-03  4.0466138072708466e-03  3.9413976208999193e-03  3.7539876650499876e-03  3.4999696021923532e-03  3.1959012293155211e-03  2.8591935954487805e-03  2.5061306575517735e-03  2.1484563531322964e-03  1.7995084542436930e-03  1.4701989858075153e-03  1.1675853441882138e-03  8.9737643491291327e-04  6.6268189503054125e-04  4.6446103011974307e-04  3.0190388722015288e-04  1.7269214778666803e-04  7.3463504107923114e-05  2.0710291815917747e-07  -5.1336067758971547e-05  -8.5324285881377705e-05  -1.0559843172002070e-04  -1.1555218199499346e-04  -1.1803355610095679e-04  -1.1539285102543705e-04  -1.0946772167861304e-04  -1.0160429969260345e-04  -9.2771836334588887e-05  -8.3688394807496499e-05  -7.4842522152945460e-05  -6.6540314099816492e-05  -5.8952676127341527e-05  -5.2120352779300397e-05  -4.5950107258990534e-05  -4.0195079884465109e-05  -3.4433808318344496e-05  -2.8066587673277593e-05  -2.0418106105213361e-05  -1.1090697594144236e-05  -1.4834152133574571e-06  9.2010818356022942e-07  1.1399778050061943e-06  -1.0996908746268759e-05  4.6826421672115338e-05  2.3122929702590019e-04  5.4414571903274340e-04  9.6967499473065929e-04  1.4804919524173488e-03  2.0437973170948686e-03  2.6250546879357461e-03  3.1916175820507139e-03  3.7157830520781658e-03  4.1770494152131498e-03  4.5633368907910003e-03  4.8711397409939442e-03  5.1047404372871977e-03  5.2747293197880057e-03  5.3961086725170370e-03  5.4862344548198697e-03  5.5627889607004306e-03  5.6419162607104145e-03  5.7366145643856477e-03  5.8554755806829476e-03  6.0018744716818949e-03  6.1737189155417396e-03  6.3638225545500932e-03  6.5608635682927350e-03  6.7507514584038229e-03  6.9180843564758355e-03  7.0473117572687413e-03  7.1232998396582349e-03  7.1312101169599277e-03  7.0557993940170999e-03  6.8804074862292780e-03  6.5859951618197562e-03  6.1506026212493183e-03  5.5493216385704806e-03  4.7546411348086412e-03  3.7369615559886787e-03  2.4652766548884050e-03  9.0807296683874448e-04  -9.6559916835664095e-04  -3.1848745323162552e-03  -5.7757599159277903e-03  -8.7596381578392835e-03  -1.2151651391366817e-02  -1.5959203752760717e-02  -2.0180557689356868e-02  -2.4803821988011537e-02  -2.9806224515889556e-02  -3.5153802759845428e-02  -4.0801605039403402e-02  -4.6694352739353975e-02  -5.2767521305900650e-02  -5.8948749891684499e-02  -6.5159464032120848e-02  -7.1316590074385122e-02  -7.7334248476641221e-02  -8.3125337147861494e-02  -8.8602947392310311e-02  -9.3681588022320975e-02  -9.8278225968615851e-02  -1.0231316999135436e-01  -1.0571086574416257e-01  -1.0840059588836330e-01  -1.1031741213458796e-01  -1.1140234307129847e-01  -1.1160310684812014e-01  -1.1087686759051396e-01  -1.0919106237097534e-01  -1.0652421645587043e-01  -1.0286773273908130e-01  -9.8227452510800839e-02  -9.2625352575894049e-02  -8.6101000219657581e-02  -7.8712813632592735e-02  -7.0538850303810921e-02  -6.1677026174390581e-02  -5.2244564358873410e-02  -4.2376560952534885e-02  -3.2223564941832497e-02  -2.1948160086202071e-02  -1.1720653744175200e-02  -1.7136740828422002e-03  7.9030509497459798e-03  1.6967981979019404e-02  2.5333165860705015e-02  3.2873496508126952e-02  3.9486444588302673e-02  4.5095232324012025e-02  4.9651740843418168e-02  5.3136337108483679e-02  5.5556686773224145e-02  5.6945569430804470e-02  5.7357905943113685e-02  5.6867135115360332e-02  5.5562461048355286e-02  5.3547457331804112e-02  5.0930444385537510e-02  4.7825581530788669e-02  4.4351723515080418e-02  4.0626153759888005e-02  3.6762807694294804e-02  3.2868588638065112e-02  2.9039735777152853e-02  2.5358850376192607e-02  2.1892461326858074e-02  1.8689730384413270e-02  1.5782374037862448e-02  1.3185807718029623e-02  1.0901223454107012e-02  8.9183344972771448e-03  7.2183751477220282e-03  5.7770556074680218e-03  4.5670989720704930e-03  3.5602652330383525e-03  2.7289509443843250e-03  2.0473725802013418e-03  1.4922381726803352e-03  1.0432034911171996e-03  6.8320341440939879e-04  3.9864641032860622e-04  1.7951504908709508e-04  1.9268101565945689e-05  -8.5650931079990229e-05  -1.3706154742089581e-04  -1.3755740613723293e-04  -9.5514756853787576e-05  -3.2035437735708582e-05  5.9503363096717784e-06  -7.8824277834761026e-06  3.8513505136934453e-05  2.3122897460913351e-04  6.1452586365482419e-04  1.1912632680680930e-03  1.9383211136198559e-03  2.8148580560904339e-03  3.7705009792193410e-03  4.7518331556452706e-03  5.7081004062651637e-03  6.5958676736651359e-03  7.3823803097643140e-03  8.0474262701160666e-03  8.5836841159467655e-03  8.9957192122679126e-03  9.2979179356290510e-03  9.5117060806234801e-03  9.6623911092255065e-03  9.7759220133629317e-03  9.8758074427408877e-03  9.9803980757049559e-03  1.0100727895762860e-02  1.0239110729412741e-02  1.0388656935586776e-02  1.0533786881197878e-02  1.0651648769189838e-02  1.0714113373029450e-02  1.0689854433977601e-02  1.0546003051599955e-02  1.0248950469076090e-02  9.7641149847104529e-03  9.0549397355382481e-03  8.0817252800188290e-03  6.8008394407631876e-03  5.1644628502628305e-03  3.1210508448577599e-03  6.1659112328517687e-04  -2.4034208549833739e-03  -5.9916537604473106e-03  -1.0196355077030329e-02  -1.5058451124247392e-02  -2.0608385006540598e-02  -2.6862986373376925e-02  -3.3822608085255730e-02  -4.1468752789103024e-02  -4.9762559635508241e-02  -5.8644353350397083e-02  -6.8034109569546850e-02  -7.7833348071486314e-02  -8.7928070618003173e-02  -9.8192387050506244e-02  -1.0849263186236197e-01  -1.1869157293845629e-01  -1.2865238973129692e-01  -1.3824216311422263e-01  -1.4733471284492530e-01  -1.5581271363664739e-01  -1.6356910347477602e-01  -1.7050786000605958e-01  -1.7654426011624305e-01  -1.8160475626337924e-01  -1.8562660592720309e-01  -1.8855737046013921e-01  -1.9035442351051698e-01  -1.9098443256261291e-01  -1.9042307337235581e-01  -1.8865564648027586e-01  -1.8567761037133357e-01  -1.8149240094591076e-01  -1.7611294125971660e-01  -1.6956262686114287e-01  -1.6187609272595324e-01  -1.5310016743213867e-01  -1.4329490563667829e-01  -1.3253449876103407e-01  -1.2090804616151357e-01  -1.0851998319384080e-01  -9.5490081070188707e-02  -8.1952860797586236e-02  -6.8056344919084036e-02  -5.3960088142271406e-02  -3.9832672790578928e-02  -2.5848340302441663e-02  -1.2180544814676652e-02  1.0009164209498617e-03  1.3528645339655273e-02  2.5248696973260001e-02  3.6024643420089993e-02  4.5737768770086160e-02  5.4290422990508840e-02  6.1607785519078487e-02  6.7638705307995248e-02  7.2355918499028796e-02  7.5755977408728581e-02  7.7857953541577124e-02  7.8702683495812262e-02  7.8352262133555534e-02  7.6893798937343244e-02  7.4433239661062647e-02  7.1092421979933318e-02  6.7012060768180004e-02  6.2346200244517681e-02  5.7257742947739838e-02  5.1912639090338220e-02  4.6472323343208125e-02  4.1086129748954703e-02  3.5884252157527767e-02  3.0972359425429433e-02  2.6428519648421658e-02  2.2302867132917535e-02  1.8619596440223415e-02  1.5380690414891591e-02  1.2570679748379322e-02  1.0161610567833913e-02  8.1177562389698824e-03  6.3995886691176227e-03  4.9668002801280340e-03  3.7807057255709879e-03  2.8059195519457491e-03  2.0114321026197808e-03  1.3713461185486484e-03  8.6521975563410983e-04  4.7795468010085866e-04  1.9902716468418174e-04  2.0598447012386398e-05  -6.5655856240202242e-05  -7.4558253386468817e-05  -3.1961957726066572e-05  5.8292660517955249e-06  -1.7702578333937883e-05  8.8714936579490522e-05  4.2282226831336290e-04  9.9974765188566594e-04  1.8107286705523727e-03  2.8227121729018948e-03  3.9841236750914784e-03  5.2326031497690485e-03  6.5026774681504213e-03  7.7325813530347148e-03  8.8697294147846561e-03  9.8745092736965325e-03  1.0722261173140206e-02  1.1403510037978900e-02  1.1922677349809377e-02  1.2295597384684772e-02  1.2546196737695282e-02  1.2702684391314159e-02  1.2793568418656229e-02  1.2843787286537720e-02  1.2871233821016351e-02  1.2883961557357680e-02  1.2878358611170593e-02  1.2838525343239116e-02  1.2736925754182700e-02  1.2536137401274287e-02  1.2191287081420043e-02  1.1652509898325511e-02  1.0866689421503650e-02  9.7781253491046240e-03  8.3283192851997326e-03  6.4552450845277816e-03  4.0925531883124365e-03  1.1694704394327839e-03  -2.3878201463978618e-03  -6.6535383849803710e-03  -1.1698801251795307e-02  -1.7587450637019105e-02  -2.4371220310650428e-02  -3.2084674463664420e-02  -4.0740301772045955e-02  -5.0324254855694611e-02  -6.0793075789547617e-02  -7.2072171688432426e-02  -8.4056478357830880e-02  -9.6613247569829627e-02  -1.0958691414964111e-01  -1.2280573291675127e-01  -1.3608916906199611e-01  -1.4925548468986158e-01  -1.6212879475060282e-01  -1.7454492951499928e-01  -1.8635578808511583e-01  -1.9743205020281712e-01  -2.0766433170010640e-01  -2.1696300771728971e-01  -2.2525700968831949e-01  -2.3249192348744305e-01  -2.3862769472751677e-01  -2.4363620050310536e-01  -2.4749888817213117e-01  -2.5020462495264528e-01  -2.5174785562059843e-01  -2.5212711555275136e-01  -2.5134397126141911e-01  -2.4940284402888502e-01  -2.4631024981472732e-01  -2.4207230112946998e-01  -2.3669852355823826e-01  -2.3020212633105663e-01  -2.2260080656041847e-01  -2.1391837111939102e-01  -2.0418640000126398e-01  -1.9344607525132104e-01  -1.8175005237233868e-01  -1.6916419635197114e-01  -1.5576905619626541e-01  -1.4166085540079768e-01  -1.2695183471424371e-01  -1.1176976100924184e-01  -9.6256488454884451e-02  -8.0565374699782907e-02  -6.4857831613963163e-02  -4.9301377132450294e-02  -3.4063333194881681e-02  -1.9300220192359961e-02  -5.1651760873021044e-03  8.2010947279080020e-03  2.0675342487380136e-02  3.2150575598412903e-02  4.2536953976304456e-02  5.1761344431448558e-02  5.9766284537518297e-02  6.6508555166694919e-02  7.1959218304276512e-02  7.6102639709184225e-02  7.8934694230545846e-02  8.0465790203064838e-02  8.0728523119397683e-02  7.9780025832696583e-02  7.7699526629579921e-02  7.4595044525799958e-02  7.0603370031108073e-02  6.5886885449213783e-02  6.0628056772320603e-02  5.5020062897229417e-02  4.9255404395460653e-02  4.3513967665559553e-02  3.7952469556183803e-02  3.2696797210377847e-02  2.7838251535916396e-02  2.3433708105834401e-02  1.9508884563289919e-02  1.6063821733426908e-02  1.3079218951717337e-02  1.0522637658869903e-02  8.3540857150239470e-03  6.5304851329946604e-03  5.0091235954765403e-03  3.7502492705436844e-03  2.7187575050565765e-03  1.8852200050895674e-03  1.2262088951194583e-03  7.2381416715154329e-04  3.6408970225684903e-04  1.3432676217440336e-04  1.8199999773530290e-05  -8.9274077277353204e-06  1.4479003591961661e-06  -2.6176422066946956e-05  1.3145524078588466e-04  5.9459480846000700e-04  1.3505044419316505e-03  2.3724384375825506e-03  3.6129037023073826e-03  5.0076631348830065e-03  6.4828133223799912e-03  7.9629259464420211e-03  9.3784510885550915e-03  1.0671501349785352e-02  1.1799557017210796e-02  1.2737030183549202e-02  1.3474897487995205e-02  1.4018765431003036e-02  1.4385775747360351e-02  1.4600729718239655e-02  1.4691756719319098e-02  1.4685811435935975e-02  1.4604280351177485e-02  1.4459017360564777e-02  1.4249176187192219e-02  1.3959222203585612e-02  1.3558406609557658e-02  1.3001796601690969e-02  1.2232580019829709e-02  1.1184904866942555e-02  9.7864638114112876e-03  7.9603463978786711e-03  5.6257821874911938e-03  2.6978386855457041e-03  -9.1277260872190888e-04  -5.2984618652390297e-03  -1.0551869042228089e-02  -1.6761483936557013e-02  -2.4005691633783483e-02  -3.2345820719440053e-02  -4.1818971829388298e-02  -5.2431180128521007e-02  -6.4151506171248526e-02  -7.6908135835825897e-02  -9.0587368132466997e-02  -1.0503621662971598e-01  -1.2006851993114401e-01  -1.3547407487884724e-01  -1.5102990479933362e-01  -1.6651218943462329e-01  -1.8170738265633346e-01  -1.9642148637880291e-01  -2.1048660419623508e-01  -2.2376450002136450e-01  -2.3614735494952860e-01  -2.4755618765206963e-01  -2.5793759753833650e-01  -2.6725950950419486e-01  -2.7550653334911490e-01  -2.8267541627410969e-01  -2.8877091966261831e-01  -2.9380231144556485e-01  -2.9778055183152274e-01  -3.0071616966576087e-01  -3.0261777626208997e-01  -3.0349114376376668e-01  -3.0333875071275979e-01  -3.0215981571291534e-01  -2.9994991856107156e-01  -2.9670098405318140e-01  -2.9240560929367099e-01  -2.8705588757418177e-01  -2.8064464484182056e-01  -2.7316749796273071e-01  -2.6462451716819302e-01  -2.5502240504676632e-01  -2.4437677640566996e-01  -2.3271461132734594e-01  -2.2007671251147920e-01  -2.0652001335171966e-01  -1.9211952091475160e-01  -1.7696963059132434e-01  -1.6118454597953322e-01  -1.4489754360636450e-01  -1.2825897439726103e-01  -1.1143285808208150e-01  -9.4590817590070472e-02  -7.7907688197114480e-02  -6.1558903265534419e-02  -4.5704902866775754e-02  -3.0492369645141956e-02  -1.6050345791287626e-02  -2.4856815377288927e-03  1.0116255522080319e-02  2.1689940661697025e-02  3.2186286331088783e-02  4.1568550711193648e-02  4.9807091840499251e-02  5.6876545909844242e-02  6.2756019061842194e-02  6.7421611307816501e-02  7.0849153848175181e-02  7.3023444277659028e-02  7.3947495842517114e-02  7.3644772111729373e-02  7.2168638713227609e-02  6.9609373208638498e-02  6.6095697438505824e-02  6.1792326299454935e-02  5.6891710644185634e-02  5.1601180447092825e-02  4.6127645424860746e-02  4.0662488624154079e-02  3.5369213853592978e-02  3.0375614488440134e-02  2.5771097045597682e-02  2.1608403163472595e-02  1.7908529921787476e-02  1.4667466218205201e-02  1.1863335823101657e-02  9.4629495704174893e-03  7.4273135604069921e-03  5.7159369507515483e-03  4.2901113040431198e-03  3.1151198684971700e-03  2.1615567083981910e-03  1.4057645540335047e-03  8.2929471848934284e-04  4.1734360098412909e-04  1.5547385979754002e-04  2.5707778331005712e-05  -5.3536361325180115e-06  -3.3370041709884611e-05  1.6726708760844109e-04  7.4568625149739579e-04  1.6668614938383129e-03  2.8833272810702658e-03  4.3290290673142478e-03  5.9234548305865057e-03  7.5790256945100897e-03  9.2098953951468884e-03  1.0739834704005921e-02  1.2108012539571132e-02  1.3272137898824638e-02  1.4209037715684146e-02  1.4913112409359695e-02  1.5393253631164335e-02  1.5668771288199046e-02  1.5764749665234758e-02  1.5707125020215682e-02  1.5517709682461503e-02  1.5209418621581006e-02  1.4782040304928823e-02  1.4219001350545681e-02  1.3485621690375029e-02  1.2529227676760199e-02  1.1281012147666955e-02  9.6591111003094497e-03  7.5722024892507945e-03  4.9225362659228522e-03  1.6074676800303816e-03  -2.4798386018052582e-03  -7.4491413844318625e-03  -1.3410539813171609e-02  -2.0469742732170448e-02  -2.8720611467987434e-02  -3.8235987979245184e-02  -4.9058042847611977e-02  -6.1189004246693705e-02  -7.4583410669193953e-02  -8.9143480696112651e-02  -1.0471885240887510e-01  -1.2111140321051157e-01  -1.3808522783442709e-01  -1.5538075532443635e-01  -1.7273124947030602e-01  -1.8987939798892289e-01  -2.0659171326927980e-01  -2.2266912598277036e-01  -2.3795296287360249e-01  -2.5232628065572460e-01  -2.6571131731751579e-01  -2.7806418513210507e-01  -2.8936803216818080e-01  -2.9962579163884279e-01  -3.0885336609989694e-01  -3.1707378678544090e-01  -3.2431259685593739e-01  -3.3059448343660003e-01  -3.3594103317073715e-01  -3.4036940764146789e-01  -3.4389171168055999e-01  -3.4651484261412835e-01  -3.4824064559646900e-01  -3.4906623137846715e-01  -3.4898440054964514e-01  -3.4798390421508579e-01  -3.4605019684158972e-01  -3.4316726484498206e-01  -3.3931582738203098e-01  -3.3447481035121890e-01  -3.2862266933716006e-01  -3.2173815105594938e-01  -3.1380200212360648e-01  -3.0479875410561585e-01  -2.9471908383419010e-01  -2.8356250730860549e-01  -2.7134048210636286e-01  -2.5807972406330115e-01  -2.4382556301564365e-01  -2.2864501720118591e-01  -2.1262920352783607e-01  -1.9589463916796285e-01  -1.7858295259089604e-01  -1.6085865186618262e-01  -1.4290548136884768e-01  -1.2491935439404343e-01  -1.0709840856270729e-01  -8.9638981330014411e-02  -7.2722254597532107e-02  -5.6506849941573109e-02  -4.1123731345125952e-02  -2.6672413852173470e-02  -1.3221191070446978e-02  -8.1023117164343266e-04  1.0542354855058046e-02  2.0833308647836366e-02  3.0065155784509960e-02  3.8236911457535126e-02  4.5345356152914212e-02  5.1374758056255354e-02  5.6293626730669150e-02  6.0063247256320736e-02  6.2649314186006916e-02  6.4029749726420643e-02  6.4206567068877396e-02  6.3218584275652204e-02  6.1148744574783427e-02  5.8126119799530480e-02  5.4320848796345175e-02  4.9932141324155868e-02  4.5171770645756282e-02  4.0246214354762722e-02  3.5340776084076292e-02  3.0608204839803910e-02  2.6163027652468109e-02  2.2081296154657790e-02  1.8404378038502787e-02  1.5145109046730934e-02  1.2295014396357429e-02  9.8312771635117764e-03  7.7227426202939042e-03  5.9347877672199815e-03  4.4331330940532501e-03  3.1866063224853828e-03  2.1690092169635881e-03  1.3601148479919188e-03  7.4576587374498686e-04  3.1676139886480716e-04  6.6695519865190227e-05  -1.3395390241032082e-05  -3.9878790068605726e-05  1.9957733704614093e-04  8.8573106902200790e-04  1.9645276525220635e-03  3.3662551527841220e-03  5.0025188513322426e-03  6.7724765584694360e-03  8.5718687606500567e-03  1.0303110531230422e-02  1.1883766853893141e-02  1.3252044602861474e-02  1.4368829399528701e-02  1.5216627647768471e-02  1.5796210507596675e-02  1.6121845598465839e-02  1.6215838146936182e-02  1.6102847197717648e-02  1.5804220746041465e-02  1.5332528987138492e-02  1.4686506520304766e-02  1.3846823290915475e-02  1.2773297767744198e-02  1.1404086516252604e-02  9.6570638516144929e-03  7.4333183311281531e-03  4.6218373319943306e-03  1.1036763781086536e-03  -3.2449527160229481e-03  -8.5501808249039066e-03  -1.4938027097231707e-02  -2.2530233180267333e-02  -3.1436687181999240e-02  -4.1744849975092244e-02  -5.3507449098751707e-02  -6.6729888822532876e-02  -8.1359866476609768e-02  -9.7281362276074965e-02  -1.1431458706488122e-01  -1.3222279550920676e-01  -1.5072603292819475e-01  -1.6952039563149343e-01  -1.883000