<?xml version="1.0"?>
<VTKFile type="UnstructuredGrid"  version="0.1"  >
<UnstructuredGrid>
<Piece  NumberOfPoints="16641" NumberOfCells="16384">
<Points>
<DataArray  type="Float64"  NumberOfComponents="3"  format="ascii">0 0 0  0.0078125 0 0  0.015625 0 0  0.0234375 0 0  0.03125 0 0  0.0390625 0 0  0.046875 0 0  0.0546875 0 0  0.0625 0 0  0.0703125 0 0  0.078125 0 0  0.0859375 0 0  0.09375 0 0  0.1015625 0 0  0.109375 0 0  0.1171875 0 0  0.125 0 0  0.1328125 0 0  0.140625 0 0  0.1484375 0 0  0.15625 0 0  0.1640625 0 0  0.171875 0 0  0.1796875 0 0  0.1875 0 0  0.1953125 0 0  0.203125 0 0  0.2109375 0 0  0.21875 0 0  0.2265625 0 0  0.234375 0 0  0.2421875 0 0  0.25 0 0  0.2578125 0 0  0.265625 0 0  0.2734375 0 0  0.28125 0 0  0.2890625 0 0  0.296875 0 0  0.3046875 0 0  0.3125 0 0  0.3203125 0 0  0.328125 0 0  0.3359375 0 0  0.34375 0 0  0.3515625 0 0  0.359375 0 0  0.3671875 0 0  0.375 0 0  0.3828125 0 0  0.390625 0 0  0.3984375 0 0  0.40625 0 0  0.4140625 0 0  0.421875 0 0  0.4296875 0 0  0.4375 0 0  0.4453125 0 0  0.453125 0 0  0.4609375 0 0  0.46875 0 0  0.4765625 0 0  0.484375 0 0  0.4921875 0 0  0.5 0 0  0.5078125 0 0  0.515625 0 0  0.5234375 0 0  0.53125 0 0  0.5390625 0 0  0.546875 0 0  0.5546875 0 0  0.5625 0 0  0.5703125 0 0  0.578125 0 0  0.5859375 0 0  0.59375 0 0  0.6015625 0 0  0.609375 0 0  0.6171875 0 0  0.625 0 0  0.6328125 0 0  0.640625 0 0  0.6484375 0 0  0.65625 0 0  0.6640625 0 0  0.671875 0 0  0.6796875 0 0  0.6875 0 0  0.6953125 0 0  0.703125 0 0  0.7109375 0 0  0.71875 0 0  0.7265625 0 0  0.734375 0 0  0.7421875 0 0  0.75 0 0  0.7578125 0 0  0.765625 0 0  0.7734375 0 0  0.78125 0 0  0.7890625 0 0  0.796875 0 0  0.8046875 0 0  0.8125 0 0  0.8203125 0 0  0.828125 0 0  0.8359375 0 0  0.84375 0 0  0.8515625 0 0  0.859375 0 0  0.8671875 0 0  0.875 0 0  0.8828125 0 0  0.890625 0 0  0.8984375 0 0  0.90625 0 0  0.9140625 0 0  0.921875 0 0  0.9296875 0 0  0.9375 0 0  0.9453125 0 0  0.953125 0 0  0.9609375 0 0  0.96875 0 0  0.9765625 0 0  0.984375 0 0  0.9921875 0 0  1 0 0  0 0.0078125 0  0.0078125 0.0078125 0  0.015625 0.0078125 0  0.0234375 0.0078125 0  0.03125 0.0078125 0  0.0390625 0.0078125 0  0.046875 0.0078125 0  0.0546875 0.0078125 0  0.0625 0.0078125 0  0.0703125 0.0078125 0  0.078125 0.0078125 0  0.0859375 0.0078125 0  0.09375 0.0078125 0  0.1015625 0.0078125 0  0.109375 0.0078125 0  0.1171875 0.0078125 0  0.125 0.0078125 0  0.1328125 0.0078125 0  0.140625 0.0078125 0  0.1484375 0.0078125 0  0.15625 0.0078125 0  0.1640625 0.0078125 0  0.171875 0.0078125 0  0.1796875 0.0078125 0  0.1875 0.0078125 0  0.1953125 0.0078125 0  0.203125 0.0078125 0  0.2109375 0.0078125 0  0.21875 0.0078125 0  0.2265625 0.0078125 0  0.234375 0.0078125 0  0.2421875 0.0078125 0  0.25 0.0078125 0  0.2578125 0.0078125 0  0.265625 0.0078125 0  0.2734375 0.0078125 0  0.28125 0.0078125 0  0.2890625 0.0078125 0  0.296875 0.0078125 0  0.3046875 0.0078125 0  0.3125 0.0078125 0  0.3203125 0.0078125 0  0.328125 0.0078125 0  0.3359375 0.0078125 0  0.34375 0.0078125 0  0.3515625 0.0078125 0  0.359375 0.0078125 0  0.3671875 0.0078125 0  0.375 0.0078125 0  0.3828125 0.0078125 0  0.390625 0.0078125 0  0.3984375 0.0078125 0  0.40625 0.0078125 0  0.4140625 0.0078125 0  0.421875 0.0078125 0  0.4296875 0.0078125 0  0.4375 0.0078125 0  0.4453125 0.0078125 0  0.453125 0.0078125 0  0.4609375 0.0078125 0  0.46875 0.0078125 0  0.4765625 0.0078125 0  0.484375 0.0078125 0  0.4921875 0.0078125 0  0.5 0.0078125 0  0.5078125 0.0078125 0  0.515625 0.0078125 0  0.5234375 0.0078125 0  0.53125 0.0078125 0  0.5390625 0.0078125 0  0.546875 0.0078125 0  0.5546875 0.0078125 0  0.5625 0.0078125 0  0.5703125 0.0078125 0  0.578125 0.0078125 0  0.5859375 0.0078125 0  0.59375 0.0078125 0  0.6015625 0.0078125 0  0.609375 0.0078125 0  0.6171875 0.0078125 0  0.625 0.0078125 0  0.6328125 0.0078125 0  0.640625 0.0078125 0  0.6484375 0.0078125 0  0.65625 0.0078125 0  0.6640625 0.0078125 0  0.671875 0.0078125 0  0.6796875 0.0078125 0  0.6875 0.0078125 0  0.6953125 0.0078125 0  0.703125 0.0078125 0  0.7109375 0.0078125 0  0.71875 0.0078125 0  0.7265625 0.0078125 0  0.734375 0.0078125 0  0.7421875 0.0078125 0  0.75 0.0078125 0  0.7578125 0.0078125 0  0.765625 0.0078125 0  0.7734375 0.0078125 0  0.78125 0.0078125 0  0.7890625 0.0078125 0  0.796875 0.0078125 0  0.8046875 0.0078125 0  0.8125 0.0078125 0  0.8203125 0.0078125 0  0.828125 0.0078125 0  0.8359375 0.0078125 0  0.84375 0.0078125 0  0.8515625 0.0078125 0  0.859375 0.0078125 0  0.8671875 0.0078125 0  0.875 0.0078125 0  0.8828125 0.0078125 0  0.890625 0.0078125 0  0.8984375 0.0078125 0  0.90625 0.0078125 0  0.9140625 0.0078125 0  0.921875 0.0078125 0  0.9296875 0.0078125 0  0.9375 0.0078125 0  0.9453125 0.0078125 0  0.953125 0.0078125 0  0.9609375 0.0078125 0  0.96875 0.0078125 0  0.9765625 0.0078125 0  0.984375 0.0078125 0  0.9921875 0.0078125 0  1 0.0078125 0  0 0.015625 0  0.0078125 0.015625 0  0.015625 0.015625 0  0.0234375 0.015625 0  0.03125 0.015625 0  0.0390625 0.015625 0  0.046875 0.015625 0  0.0546875 0.015625 0  0.0625 0.015625 0  0.0703125 0.015625 0  0.078125 0.015625 0  0.0859375 0.015625 0  0.09375 0.015625 0  0.1015625 0.015625 0  0.109375 0.015625 0  0.1171875 0.015625 0  0.125 0.015625 0  0.1328125 0.015625 0  0.140625 0.015625 0  0.1484375 0.015625 0  0.15625 0.015625 0  0.1640625 0.015625 0  0.171875 0.015625 0  0.1796875 0.015625 0  0.1875 0.015625 0  0.1953125 0.015625 0  0.203125 0.015625 0  0.2109375 0.015625 0  0.21875 0.015625 0  0.2265625 0.015625 0  0.234375 0.015625 0  0.2421875 0.015625 0  0.25 0.015625 0  0.2578125 0.015625 0  0.265625 0.015625 0  0.2734375 0.015625 0  0.28125 0.015625 0  0.2890625 0.015625 0  0.296875 0.015625 0  0.3046875 0.015625 0  0.3125 0.015625 0  0.3203125 0.015625 0  0.328125 0.015625 0  0.3359375 0.015625 0  0.34375 0.015625 0  0.3515625 0.015625 0  0.359375 0.015625 0  0.3671875 0.015625 0  0.375 0.015625 0  0.3828125 0.015625 0  0.390625 0.015625 0  0.3984375 0.015625 0  0.40625 0.015625 0  0.4140625 0.015625 0  0.421875 0.015625 0  0.4296875 0.015625 0  0.4375 0.015625 0  0.4453125 0.015625 0  0.453125 0.015625 0  0.4609375 0.015625 0  0.46875 0.015625 0  0.4765625 0.015625 0  0.484375 0.015625 0  0.4921875 0.015625 0  0.5 0.015625 0  0.5078125 0.015625 0  0.515625 0.015625 0  0.5234375 0.015625 0  0.53125 0.015625 0  0.5390625 0.015625 0  0.546875 0.015625 0  0.5546875 0.015625 0  0.5625 0.015625 0  0.5703125 0.015625 0  0.578125 0.015625 0  0.5859375 0.015625 0  0.59375 0.015625 0  0.6015625 0.015625 0  0.609375 0.015625 0  0.6171875 0.015625 0  0.625 0.015625 0  0.6328125 0.015625 0  0.640625 0.015625 0  0.6484375 0.015625 0  0.65625 0.015625 0  0.6640625 0.015625 0  0.671875 0.015625 0  0.6796875 0.015625 0  0.6875 0.015625 0  0.6953125 0.015625 0  0.703125 0.015625 0  0.7109375 0.015625 0  0.71875 0.015625 0  0.7265625 0.015625 0  0.734375 0.015625 0  0.7421875 0.015625 0  0.75 0.015625 0  0.7578125 0.015625 0  0.765625 0.015625 0  0.7734375 0.015625 0  0.78125 0.015625 0  0.7890625 0.015625 0  0.796875 0.015625 0  0.8046875 0.015625 0  0.8125 0.015625 0  0.8203125 0.015625 0  0.828125 0.015625 0  0.8359375 0.015625 0  0.84375 0.015625 0  0.8515625 0.015625 0  0.859375 0.015625 0  0.8671875 0.015625 0  0.875 0.015625 0  0.8828125 0.015625 0  0.890625 0.015625 0  0.8984375 0.015625 0  0.90625 0.015625 0  0.9140625 0.015625 0  0.921875 0.015625 0  0.9296875 0.015625 0  0.9375 0.015625 0  0.9453125 0.015625 0  0.953125 0.015625 0  0.9609375 0.015625 0  0.96875 0.015625 0  0.9765625 0.015625 0  0.984375 0.015625 0  0.9921875 0.015625 0  1 0.015625 0  0 0.0234375 0  0.0078125 0.0234375 0  0.015625 0.0234375 0  0.0234375 0.0234375 0  0.03125 0.0234375 0  0.0390625 0.0234375 0  0.046875 0.0234375 0  0.0546875 0.0234375 0  0.0625 0.0234375 0  0.0703125 0.0234375 0  0.078125 0.0234375 0  0.0859375 0.0234375 0  0.09375 0.0234375 0  0.1015625 0.0234375 0  0.109375 0.0234375 0  0.1171875 0.0234375 0  0.125 0.0234375 0  0.1328125 0.0234375 0  0.140625 0.0234375 0  0.1484375 0.0234375 0  0.15625 0.0234375 0  0.1640625 0.0234375 0  0.171875 0.0234375 0  0.1796875 0.0234375 0  0.1875 0.0234375 0  0.1953125 0.0234375 0  0.203125 0.0234375 0  0.2109375 0.0234375 0  0.21875 0.0234375 0  0.2265625 0.0234375 0  0.234375 0.0234375 0  0.2421875 0.0234375 0  0.25 0.0234375 0  0.2578125 0.0234375 0  0.265625 0.0234375 0  0.2734375 0.0234375 0  0.28125 0.0234375 0  0.2890625 0.0234375 0  0.296875 0.0234375 0  0.3046875 0.0234375 0  0.3125 0.0234375 0  0.3203125 0.0234375 0  0.328125 0.0234375 0  0.3359375 0.0234375 0  0.34375 0.0234375 0  0.3515625 0.0234375 0  0.359375 0.0234375 0  0.3671875 0.0234375 0  0.375 0.0234375 0  0.3828125 0.0234375 0  0.390625 0.0234375 0  0.3984375 0.0234375 0  0.40625 0.0234375 0  0.4140625 0.0234375 0  0.421875 0.0234375 0  0.4296875 0.0234375 0  0.4375 0.0234375 0  0.4453125 0.0234375 0  0.453125 0.0234375 0  0.4609375 0.0234375 0  0.46875 0.0234375 0  0.4765625 0.0234375 0  0.484375 0.0234375 0  0.4921875 0.0234375 0  0.5 0.0234375 0  0.5078125 0.0234375 0  0.515625 0.0234375 0  0.5234375 0.0234375 0  0.53125 0.0234375 0  0.5390625 0.0234375 0  0.546875 0.0234375 0  0.5546875 0.0234375 0  0.5625 0.0234375 0  0.5703125 0.0234375 0  0.578125 0.0234375 0  0.5859375 0.0234375 0  0.59375 0.0234375 0  0.6015625 0.0234375 0  0.609375 0.0234375 0  0.6171875 0.0234375 0  0.625 0.0234375 0  0.6328125 0.0234375 0  0.640625 0.0234375 0  0.6484375 0.0234375 0  0.65625 0.0234375 0  0.6640625 0.0234375 0  0.671875 0.0234375 0  0.6796875 0.0234375 0  0.6875 0.0234375 0  0.6953125 0.0234375 0  0.703125 0.0234375 0  0.7109375 0.0234375 0  0.71875 0.0234375 0  0.7265625 0.0234375 0  0.734375 0.0234375 0  0.7421875 0.0234375 0  0.75 0.0234375 0  0.7578125 0.0234375 0  0.765625 0.0234375 0  0.7734375 0.0234375 0  0.78125 0.0234375 0  0.7890625 0.0234375 0  0.796875 0.0234375 0  0.8046875 0.0234375 0  0.8125 0.0234375 0  0.8203125 0.0234375 0  0.828125 0.0234375 0  0.8359375 0.0234375 0  0.84375 0.0234375 0  0.8515625 0.0234375 0  0.859375 0.0234375 0  0.8671
[...]
<PointData  Scalars="v_sol"> 
<DataArray  type="Float64"  Name="v_sol"  format="ascii">-1.9314523029387069e-06  -1.0228028198950539e-06  8.9965045718387582e-06  2.1093303764280219e-05  3.2319240415175520e-05  4.1434537475505783e-05  4.7738726403938278e-05  5.0933080003409613e-05  5.1034660314761589e-05  4.8371634401025522e-05  4.3516424026922442e-05  3.7203063839264390e-05  3.0224410019485826e-05  2.3337707894997747e-05  1.7188339498953288e-05  1.2260755348761779e-05  8.8551975179092438e-06  7.0854301121223352e-06  6.8904123031272781e-06  8.0546999724177046e-06  1.0235581380489811e-05  1.2998076359427988e-05  1.5859792898756054e-05  1.8344910097299957e-05  2.0040899763654704e-05  2.0646352321560922e-05  1.9996060680897186e-05  1.8051871396451484e-05  1.4859339114813688e-05  1.0484457658594646e-05  4.9506665774506631e-06  -1.8052591780170426e-06  -9.9468301002790310e-06  -1.9715041220181589e-05  -3.1385131256345126e-05  -4.5225961254395562e-05  -6.1477694923144088e-05  -8.0334268198635183e-05  -1.0193497200609812e-04  -1.2634735355221595e-04  -1.5356387607517549e-04  -1.8348264040327051e-04  -2.1587738682983090e-04  -2.5039450540594033e-04  -2.8655811573973335e-04  -3.2371316162729249e-04  -3.6110298136975252e-04  -3.9789854399182759e-04  -4.3314069697358577e-04  -4.6583181314182394e-04  -4.9496785030627636e-04  -5.1957235555039581e-04  -5.3873878361734601e-04  -5.5165987667401639e-04  -5.5765223081907778e-04  -5.5616952303219852e-04  -5.4680664750900588e-04  -5.2929742789804921e-04  -5.0350323611849464e-04  -4.6940813652659742e-04  -4.2709320810147450e-04  -3.7676089589270444e-04  -3.1865594146685699e-04  -2.5323090150847232e-04  -1.8079781362524632e-04  -1.0223834861519169e-04  -1.8010432639922211e-05  7.1304923041831398e-05  1.6420308095597483e-04  2.5959002476587986e-04  3.5603416432593331e-04  4.5189794352439532e-04  5.4537565435088008e-04  6.3448458262726072e-04  7.1713077270533045e-04  7.9115835288647506e-04  8.5443206363750978e-04  9.0493595511137741e-04  9.4086279381366226e-04  9.6076692479777443e-04  9.6357555438767849e-04  9.4899699357579512e-04  9.1708821722648933e-04  8.6731528039981070e-04  8.0262503952243042e-04  7.2528880578052026e-04  6.3625884199262873e-04  5.3909951015181090e-04  4.3671113211117936e-04  3.3211450747612205e-04  2.2827585753915300e-04  1.2790666586510243e-04  3.3300551464624680e-05  -5.3605188132161568e-05  -1.3095597192626547e-04  -1.9803108151894715e-04  -2.5413285464857344e-04  -2.9872547453654191e-04  -3.3187764039327135e-04  -3.5367521630109587e-04  -3.6472850648994177e-04  -3.6584028491708258e-04  -3.5812136898914212e-04  -3.4293951735271514e-04  -3.2183156859426381e-04  -2.9642394723962954e-04  -2.6833187258287842e-04  -2.3903118630181253e-04  -2.0979180660948203e-04  -1.8165477607698740e-04  -1.5536596997592559e-04  -1.3141289069675943e-04  -1.1005119429385595e-04  -9.1340880936158577e-05  -7.5209585118444084e-05  -6.1486904237377101e-05  -4.9939016086932233e-05  -4.0296467675410844e-05  -3.2267319140826743e-05  -2.5541938412106483e-05  -1.9801788101557574e-05  -1.4723097568748800e-05  -1.0009143760295188e-05  -5.4207160709679576e-06  -9.0143140512828352e-07  3.3007098516498105e-06  6.2678442849876231e-06  5.9799236124414234e-06  9.3234058296948193e-07  1.0069853843816631e-05  1.0801676830367152e-05  -4.3686818301690143e-05  -1.0589249060552861e-04  -1.6333433330702863e-04  -2.0969649879488768e-04  -2.4169078832070773e-04  -2.5778795717445340e-04  -2.5811311328038364e-04  -2.4435395422122802e-04  -2.1946221989528402e-04  -1.8720653079401590e-04  -1.5164819358625144e-04  -1.1665030651509568e-04  -8.5491306925447120e-05  -6.0618601511105676e-05  -4.3537469617485754e-05  -3.4805898796690580e-05  -3.4098351975998726e-05  -4.0310568128108176e-05  -5.1695772144845999e-05  -6.6039634933398605e-05  -8.0886210684829105e-05  -9.3812862864709495e-05  -1.0272295332478356e-04  -1.0609440841649605e-04  -1.0310959676534727e-04  -9.3609157109476190e-05  -7.7869106561864187e-05  -5.6267227861882732e-05  -2.8948706795936185e-05  4.3997454890636924e-06  4.4602465966799262e-05  9.2875290883778105e-05  1.5061403819532199e-04  2.1918850903318148e-04  2.9980929523789143e-04  3.9344074472678567e-04  5.0076654276931922e-04  6.2212642826910743e-04  7.5748898325381871e-04  9.0635261717588193e-04  1.0675917997859774e-03  1.2394727839891398e-03  1.4196066269931110e-03  1.6048331793210701e-03  1.7914696208232077e-03  1.9753969021190881e-03  2.1519937264088910e-03  2.3164191820960610e-03  2.4638051045343325e-03  2.5894179699997300e-03  2.6888389740378259e-03  2.7581008362728083e-03  2.7937927799541505e-03  2.7931190539823725e-03  2.7539191030302879e-03  2.6746534216485532e-03  2.5543678464439619e-03  2.3926463603839779e-03  2.1895663550103414e-03  1.9456669087843654e-03  1.6619260038044704e-03  1.3398176443547912e-03  9.8111253821577026e-04  5.8928429532816083e-04  1.6649065157554773e-04  -2.8410202160474604e-04  -7.5625685999980007e-04  -1.2441506320442235e-03  -1.7406139468033358e-03  -2.2372234780114590e-03  -2.7244552292244920e-03  -3.1916870300529509e-03  -3.6274891149250818e-03  -4.0199232896564359e-03  -4.3570218967245071e-03  -4.6273418174294445e-03  -4.8206209384512901e-03  -4.9284643225606800e-03  -4.9450699477605444e-03  -4.8680998905238550e-03  -4.6976346018956124e-03  -4.4348927160998341e-03  -4.0925519673654254e-03  -3.6827415290734624e-03  -3.2147289375789047e-03  -2.7061380816955343e-03  -2.1734978689366444e-03  -1.6328885076630588e-03  -1.0998372668889161e-03  -5.8817197928102093e-04  -1.0941854981676932e-04  3.2695817737462304e-04  7.1286524273311499e-04  1.0449726965349316e-03  1.3205128682970671e-03  1.5371624159824376e-03  1.6959206138993947e-03  1.7981355930977803e-03  1.8468538304004291e-03  1.8465703101296408e-03  1.8029534223388045e-03  1.7228934495458234e-03  1.6140580047354618e-03  1.4845001528210023e-03  1.3421632938316976e-03  1.1943276518685618e-03  1.0472558532756706e-03  9.0601377648573324e-04  7.7426689189174201e-04  6.5438588689054674e-04  5.4759845493701357e-04  4.5416577216361498e-04  3.7368080900744782e-04  3.0527397158002856e-04  2.4776659664419180e-04  1.9979748314824481e-04  1.5989753121448184e-04  1.2651604640979072e-04  9.8041520056783735e-05  7.2849797822644545e-05  4.9392002022961474e-05  2.6485200997924689e-05  3.6218305610872092e-06  -1.7738452812435092e-05  -3.3706826074022289e-05  -3.1979090756960188e-05  -1.5605026419406217e-06  2.1815304390574300e-05  -4.3282001201817546e-05  -2.4331560213521069e-04  -4.7322461914968899e-04  -6.8871346375776600e-04  -8.6443591073880174e-04  -9.8623835774818910e-04  -1.0475869577975738e-03  -1.0486531025555921e-03  -9.9556217726086784e-04  -8.9917406940072169e-04  -7.7342312099056324e-04  -6.3345204533634585e-04  -4.9384202625314818e-04  -3.6717186252656684e-04  -2.6302819655860647e-04  -1.8747556013742892e-04  -1.4291515577899953e-04  -1.2823186608706174e-04  -1.3914818623442498e-04  -1.6875208006859649e-04  -2.0821001985006122e-04  -2.4768143001795178e-04  -2.7739944424853130e-04  -2.8878342787703028e-04  -2.7535118042588448e-04  -2.3316911517186261e-04  -1.6066907189448754e-04  -5.7841288222220739e-05  7.4957488568353235e-05  2.3817367468447333e-04  4.3379955142368196e-04  6.6547261231837240e-04  9.3799387128519983e-04  1.2565015480377750e-03  1.6256235292385261e-03  2.0488560691171438e-03  2.5282057525449438e-03  3.0638605410672429e-03  3.6538699550266534e-03  4.2937863802473579e-03  4.9764633176317434e-03  5.6919832468515837e-03  6.4275208284785218e-03  7.1675849305635232e-03  7.8945457424956945e-03  8.5892126533549887e-03  9.2316937864718538e-03  9.8023388833096640e-03  1.0282587143878027e-02  1.0655810921892795e-02  1.0907971307088571e-02  1.1028048984131953e-02  1.1008244457053338e-02  1.0843947130863530e-02  1.0533519439683885e-02  1.0077946295430714e-02  9.4804141088589509e-03  8.7458766762075410e-03  7.8806587712650939e-03  6.8921348517101714e-03  5.7885017047720070e-03  4.5786833859610505e-03  3.2722558524381539e-03  1.8798549756779430e-03  4.1171445386799617e-04  -1.1187545353377245e-03  -2.6960965308766172e-03  -4.3051505537888921e-03  -5.9276328564816481e-03  -7.5431508498952013e-03  -9.1289223957795110e-03  -1.0659737034137055e-02  -1.2108288853455919e-02  -1.3445563921808810e-02  -1.4641611629055976e-02  -1.5666498318612252e-02  -1.6491554766467319e-02  -1.7090783818040852e-02  -1.7442403415319666e-02  -1.7530322001651749e-02  -1.7345373693766760e-02  -1.6886662946383541e-02  -1.6164071213679562e-02  -1.5190006698598274e-02  -1.3990197642465342e-02  -1.2600874455537139e-02  -1.1056518180549651e-02  -9.3986261143870434e-03  -7.6704513556254215e-03  -5.9145434724859171e-03  -4.1714794117094023e-03  -2.4785304152645507e-03  -8.6880509843537069e-04  6.3028214046367565e-04  1.9920817476448013e-03  3.1968009071328967e-03  4.2313455577033775e-03  5.0825750020385575e-03  5.7428827687717489e-03  6.2094679398027215e-03  6.4846629802594435e-03  6.5772718092403934e-03  6.5024575031441918e-03  6.2815455122100126e-03  5.9407994349804788e-03  5.5095538898400831e-03  5.0179727450576578e-03  4.4947672026042062e-03  3.9652503941146437e-03  3.4501115579909898e-03  2.9647756455846970e-03  2.5195078577373571e-03  2.1200725870872067e-03  1.7684889213516518e-03  1.4638682512747318e-03  1.2032875589490229e-03  9.8246644931344451e-04  7.9618804984778050e-04  6.3862066965711633e-04  5.0355616333217889e-04  3.8470592311806712e-04  2.7622748378831050e-04  1.7366658875376335e-04  7.5616061970711158e-05  -1.3567985366932511e-05  -7.9722437695794288e-05  -9.4038098625720109e-05  -1.1455479077679813e-05  2.5595386158182933e-05  -2.0687013802810449e-04  -6.1380364808287318e-04  -1.0645033873063075e-03  -1.4846340894441382e-03  -1.8267553283106371e-03  -2.0623325009053186e-03  -2.1781831343873127e-03  -2.1745969448182475e-03  -2.0636026217494383e-03  -1.8663686081024174e-03  -1.6099451848092462e-03  -1.3237160201067450e-03  -1.0360611249040322e-03  -7.7160536099228898e-04  -5.4925764465624401e-04  -3.8106741870776525e-04  -2.7180160400041442e-04  -2.1909801379783419e-04  -2.1407983694057343e-04  -2.4238587234856791e-04  -2.8563063183351166e-04  -3.2329710997551308e-04  -3.3494645860339205e-04  -3.0244491163365042e-04  -2.1173949346406864e-04  -5.3680146007122795e-05  1.7642524469704485e-04  4.8042274154028365e-04  8.5955564976293315e-04  1.3165440014107678e-03  1.8567586680492041e-03  2.4880567646222642e-03  3.2194996372475258e-03  4.0595977997878252e-03  5.0145712071710015e-03  6.0868393561665625e-03  7.2739314053301704e-03  8.5678705844897431e-03  9.9546462910591049e-03  1.1413828932982140e-02  1.2918515036349686e-02  1.4435803719662533e-02  1.5927946868817516e-02  1.7353936552403439e-02  1.8671533474300853e-02  1.9839565357493771e-02  2.0820155432458878e-02  2.1580677016369964e-02  2.2095220874723494e-02  2.2345437494644797e-02  2.2320745406874835e-02  2.2017952674563877e-02  2.1440423019538878e-02  2.0596945728369325e-02  1.9500470216485870e-02  1.8166851255270709e-02  1.6613714400466540e-02  1.4859516383522524e-02  1.2922841539666944e-02  1.0821943490348145e-02  8.5745339012576454e-03  6.1977582897746342e-03  3.7084790077441089e-03  1.1232197302216381e-03  -1.5395767885992000e-03  -4.2616076670813205e-03  -7.0242649203724654e-03  -9.8051361621123503e-03  -1.2579479580669475e-02  -1.5319273415675339e-02  -1.7992804924976426e-02  -2.0564722801960596e-02  -2.2996079703368321e-02  -2.5244953587881841e-02  -2.7267311255361772e-02  -2.9018393305711116e-02  -3.0454441045106084e-02  -3.1534804259738966e-02  -3.2224237540975198e-02  -3.2495263429512762e-02  -3.2330354959940986e-02  -3.1723680414347678e-02  -3.0681397425184456e-02  -2.9225933961649117e-02  -2.7388439885883093e-02  -2.5210812098287461e-02  -2.2748021126392935e-02  -2.0057858749579018e-02  -1.7201830740222974e-02  -1.4242092060796002e-02  -1.1238683361601123e-02  -8.2480830583088905e-03  -5.3220179687000256e-03  -2.5084857270379173e-03  1.5264794993847890e-04  2.6207681901917069e-03  4.8557198720862709e-03  6.8269887591786149e-03  8.5044371466575525e-03  9.8615808065113820e-03  1.0880094747028963e-02  1.1551018719912313e-02  1.1878295949314216e-02  1.1880262291596135e-02  1.1589793295980104e-02  1.1052357221466131e-02  1.0322222981253527e-02  9.4575238121765697e-03  8.5151140489066763e-03  7.5461153055890618e-03  6.5928911905276224e-03  5.6875813180768623e-03  4.8520030141546355e-03  4.0986852550453992e-03  3.4325981327582326e-03  2.8528238821856791e-03  2.3540482074460335e-03  1.9279355344804659e-03  1.5640826082543322e-03  1.2507986292860274e-03  9.7594997034618344e-04  7.2811146848187887e-04  4.9842352166222612e-04  2.8344422183642308e-04  8.9519788609506345e-05  -6.1311026648773421e-05  -1.2516259797002721e-04  -2.0895807560181679e-05  2.5315690121173682e-05  -4.7245425853031844e-04  -1.1484854798773148e-03  -1.8623108115947791e-03  -2.5163985453121921e-03  -3.0426298982714249e-03  -3.3981278562593147e-03  -3.5633484749798155e-03  -3.5398874281596959e-03  -3.3475703508592846e-03  -3.0201279639839691e-03  -2.5999713597134842e-03  -2.1327045908432732e-03  -1.6620727007765471e-03  -1.2258341056733154e-03  -8.5279647200480228e-04  -5.6102549705451153e-04  -3.5709317806813831e-04  -2.3619434498972088e-04  -1.8301278029198451e-04  -1.7331899924339871e-04  -1.7633778288180053e-04  -1.5786061187289096e-04  -8.3871442632119716e-05  7.5869714006751864e-05  3.4509273222550882e-04  7.3991015519965465e-04  1.2697175360493608e-03  1.9398323433129803e-03  2.7548525287226389e-03  3.7213435740204390e-03  4.8488356808509053e-03  6.1489215913958532e-03  7.6325321219115902e-03  9.3064023120859145e-03  1.1170089210833614e-02  1.3213917959244923e-02  1.5417545235806112e-02  1.7749090753988714e-02  2.0165154773840243e-02  2.2611735534575017e-02  2.5026188985094087e-02  2.7340267888917039e-02  2.9484000042693820e-02  3.1389982236293537e-02  3.2997545508305588e-02  3.4256265920300170e-02  3.5128404021909351e-02  3.5590063548425095e-02  3.5631084580375755e-02  3.5253847761234164e-02  3.4471298436141218e-02  3.3304538626413270e-02  3.1780308158515493e-02  2.9928616057968375e-02  2.7780698745167465e-02  2.5367402306136551e-02  2.2718019735663571e-02  1.9859565735691184e-02  1.6816442443641118e-02  1.3610439269583418e-02  1.0260996872838268e-02  6.7857198004902478e-03  3.2009393780658806e-03  -4.7701754190046042e-04  -4.2323269306330236e-03  -8.0478948912606693e-03  -1.1903158484824740e-02  -1.5774885660279524e-02  -1.9635656392305297e-02  -2.3453058338471153e-02  -2.7189300976519757e-02  -3.0800733392232639e-02  -3.4238036004975346e-02  -3.7446654922842486e-02  -4.0367937508906229e-02  -4.2940777728934731e-02  -4.5103949047486609e-02  -4.6798958670000661e-02  -4.7973352601959930e-02  -4.8584188424632371e-02  -4.8601383036817651e-02  -4.8010545900031169e-02  -4.6815294885416830e-02  -4.5036807782658735e-02  -4.2715335306990940e-02  -3.9906575898927404e-02  -3.6677888428104939e-02  -3.3106352572936565e-02  -2.9272387934884833e-02  -2.5256289383474975e-02  -2.1134529289229806e-02  -1.6977210317443737e-02  -1.2847348506245903e-02  -8.8001343977271163e-03  -4.8873880825768459e-03  -1.1532254192156202e-03  2.3588877299225209e-03  5.5966888664480338e-03  8.5116816223729345e-03  1.1055636169114706e-02  1.3179487879321640e-02  1.4842093939407079e-02  1.6014790632178033e-02  1.6687811065773262e-02  1.6874662432462724e-02  1.6613559995259986e-02  1.5965207541298213e-02  1.5007084000489326e-02  1.3825441151630313e-02  1.2506686246820364e-02  1.1129812275570300e-02  9.7610394589943018e-03  8.4511209183094418e-03  7.2350730863161702e-03  6.1334858140532633e-03  5.1549346290423953e-03  4.2986966776256347e-03  3.5570014622547772e-03  2.9170766131310817e-03  2.3628937318091701e-03  1.8767905500351105e-03  1.4414512344754771e-03  1.0426718416531140e-03  6.7329478888640461e-04  3.3895017279124716e-04  6.5543009968188769e-05  -9.1898784420141926e-05  -2.7549641708893729e-05  2.3046819128232389e-05  -8.2689678653326455e-04  -1.8336598917262819e-03  -2.8500300567554163e-03  -3.7597151370011182e-03  -4.4763491540217755e-03  -4.9445834390774704e-03  -5.1406373299976152e-03  -5.0701269105419607e-03  -4.7637535075387826e-03  -4.2707933216800898e-03  -3.6514638683272076e-03  -2.9692127232825399e-03  -2.2838619606352938e-03  -1.6461663240861012e-03  -1.0939776953931689e-03  -6.4993410608764400e-04  -3.2046155484358207e-04  -9.5894081498213967e-05  4.8360264207171723e-05  1.4955371766113557e-04  2.5412504937199782e-04  4.1306592961149971e-04  6.7658072826222264e-04  1.0889639278122488e-03  1.6849183964754207e-03  2.4884192553244139e-03  3.5144322739055173e-03  4.7726292806365075e-03  6.2715927063667683e-03  8.0215850721818763e-03  1.0034142393351271e-02  1.2318662158934986e-02  1.4877832242489251e-02  1.7702935338804876e-02  2.0769902901933840e-02  2.4037071226684595e-02  2.7444750828726740e-02  3.0916505007556251e-02  3.4362192553461735e-02  3.7682838195144439e-02  4.0776910169611262e-02  4.3547269049704608e-02  4.5907830591334950e-02  4.7789015920879883e-02  4.9141283371916422e-02  4.9936433772201264e-02  5.0166802100487455e-02  4.9842753288030138e-02  4.8989079383186598e-02  4.7640932478754221e-02  4.5839828699653667e-02  4.3630109612584768e-02  4.1056080651169703e-02  3.8159901391402747e-02  3.4980195006172353e-02  3.1551282436270700e-02  2.7902921300264800e-02  2.4060427356949726e-02  2.0045074454832040e-02  1.5874688974398608e-02  1.1564387957263196e-02  7.1273905611505487e-03  2.5760026344178360e-03  -2.0777642789670892e-03  -6.8206669255869504e-03  -1.1636917007653723e-02  -1.6507949111780187e-02  -2.1410807150174793e-02  -2.6317045008371853e-02  -3.1191830211382870e-02  -3.5992925084662154e-02  -4.0670181398372744e-02  -4.5165223823229253e-02  -4.9411798890333418e-02  -5.3336692871718362e-02  -5.6861513547634530e-02  -5.9905299851233614e-02  -6.2388043241378040e-02  -6.4234959064509628e-02  -6.5381301312240708e-02  -6.5777312907163335e-02  -6.5392821788791647e-02  -6.4220772739948639e-02  -6.2279635015638109e-02  -5.9613002109431622e-02  -5.6288059768583552e-02  -5.2391389773824550e-02  -4.8022750310413934e-02  -4.3288828025109187e-02  -3.8296006978700434e-02  -3.3144408799436809e-02  -2.7923345684175250e-02  -2.2708741587539494e-02  -1.7563428564690169e-02  -1.2537860460706996e-02  -7.6768210729947382e-03  -3.0204088406126203e-03  1.3929844038316338e-03  5.5110305710843370e-03  9.2736495956793671e-03  1.2617201742871731e-02  1.5472113162317912e-02  1.7773309724872122e-02  1.9469431564158850e-02  2.0532663238293308e-02  2.0966608461060573e-02  2.0809663110390956e-02  2.0132944864023089e-02  1.9032913739672804e-02  1.7620396480194974e-02  1.6008498407468742e-02  1.4301865803197348e-02  1.2589016214525862e-02  1.0938298454876984e-02  9.3972546893829074e-03  7.9942773240851851e-03  6.7415186211866492e-03  5.6383840308646292e-03  4.6746506564982644e-03  3.8332704541378928e-03  3.0931058101138103e-03  2.4317931003057258e-03  1.8294209968971668e-03  1.2733929486708317e-03  7.6530289837673112e-04  3.2981233568540690e-04  2.5452112647693033e-05  -3.0756963942903629e-05  2.0017788836724513e-05  -1.2599778126570274e-03  -2.6582866197196993e-03  -4.0163655072854264e-03  -5.1996448524253384e-03  -6.1051426352699322e-03  -6.6676722456151865e-03  -6.8628682953452581e-03  -6.7048221585088736e-03  -6.2397847148026450e-03  -5.5367498455304942e-03  -4.6768049663168439e-03  -3.7428582666884985e-03  -2.8109354783745497e-03  -1.9435967367052659e-03  -1.1855051199570271e-03  -5.6086299567774660e-04  -7.2377401863125013e-05  2.9845540926082877e-04  5.8973498667909798e-04  8.5597674332535943e-04  1.1631671612488295e-03  1.5822034343649578e-03  2.1814792883599540e-03  3.0201186404988411e-03  4.1436279475830290e-03  5.5831038494210342e-03  7.3581534710529389e-03  9.4818618493808203e-03  1.1964528263572827e-02  1.4814260002658362e-02  1.8034224236390794e-02  2.1616859715487029e-02  2.5537040318238578e-02  2.9746932261972080e-02  3.4173645143206789e-02  3.8719933753302557e-02  4.3268107168313731e-02  4.7686864055518821e-02  5.1840383974617217e-02  5