<?xml version="1.0"?>
<VTKFile type="UnstructuredGrid"  version="0.1"  >
<UnstructuredGrid>
<Piece  NumberOfPoints="1089" NumberOfCells="1024">
<Points>
<DataArray  type="Float64"  NumberOfComponents="3"  format="ascii">0 0 0  0.03125 0 0  0.0625 0 0  0.09375 0 0  0.125 0 0  0.15625 0 0  0.1875 0 0  0.21875 0 0  0.25 0 0  0.28125 0 0  0.3125 0 0  0.34375 0 0  0.375 0 0  0.40625 0 0  0.4375 0 0  0.46875 0 0  0.5 0 0  0.53125 0 0  0.5625 0 0  0.59375 0 0  0.625 0 0  0.65625 0 0  0.6875 0 0  0.71875 0 0  0.75 0 0  0.78125 0 0  0.8125 0 0  0.84375 0 0  0.875 0 0  0.90625 0 0  0.9375 0 0  0.96875 0 0  1 0 0  0 0.03125 0  0.03125 0.03125 0  0.0625 0.03125 0  0.09375 0.03125 0  0.125 0.03125 0  0.15625 0.03125 0  0.1875 0.03125 0  0.21875 0.03125 0  0.25 0.03125 0  0.28125 0.03125 0  0.3125 0.03125 0  0.34375 0.03125 0  0.375 0.03125 0  0.40625 0.03125 0  0.4375 0.03125 0  0.46875 0.03125 0  0.5 0.03125 0  0.53125 0.03125 0  0.5625 0.03125 0  0.59375 0.03125 0  0.625 0.03125 0  0.65625 0.03125 0  0.6875 0.03125 0  0.71875 0.03125 0  0.75 0.03125 0  0.78125 0.03125 0  0.8125 0.03125 0  0.84375 0.03125 0  0.875 0.03125 0  0.90625 0.03125 0  0.9375 0.03125 0  0.96875 0.03125 0  1 0.03125 0  0 0.0625 0  0.03125 0.0625 0  0.0625 0.0625 0  0.09375 0.0625 0  0.125 0.0625 0  0.15625 0.0625 0  0.1875 0.0625 0  0.21875 0.0625 0  0.25 0.0625 0  0.28125 0.0625 0  0.3125 0.0625 0  0.34375 0.0625 0  0.375 0.0625 0  0.40625 0.0625 0  0.4375 0.0625 0  0.46875 0.0625 0  0.5 0.0625 0  0.53125 0.0625 0  0.5625 0.0625 0  0.59375 0.0625 0  0.625 0.0625 0  0.65625 0.0625 0  0.6875 0.0625 0  0.71875 0.0625 0  0.75 0.0625 0  0.78125 0.0625 0  0.8125 0.0625 0  0.84375 0.0625 0  0.875 0.0625 0  0.90625 0.0625 0  0.9375 0.0625 0  0.96875 0.0625 0  1 0.0625 0  0 0.09375 0  0.03125 0.09375 0  0.0625 0.09375 0  0.09375 0.09375 0  0.125 0.09375 0  0.15625 0.09375 0  0.1875 0.09375 0  0.21875 0.09375 0  0.25 0.09375 0  0.28125 0.09375 0  0.3125 0.09375 0  0.34375 0.09375 0  0.375 0.09375 0  0.40625 0.09375 0  0.4375 0.09375 0  0.46875 0.09375 0  0.5 0.09375 0  0.53125 0.09375 0  0.5625 0.09375 0  0.59375 0.09375 0  0.625 0.09375 0  0.65625 0.09375 0  0.6875 0.09375 0  0.71875 0.09375 0  0.75 0.09375 0  0.78125 0.09375 0  0.8125 0.09375 0  0.84375 0.09375 0  0.875 0.09375 0  0.90625 0.09375 0  0.9375 0.09375 0  0.96875 0.09375 0  1 0.09375 0  0 0.125 0  0.03125 0.125 0  0.0625 0.125 0  0.09375 0.125 0  0.125 0.125 0  0.15625 0.125 0  0.1875 0.125 0  0.21875 0.125 0  0.25 0.125 0  0.28125 0.125 0  0.3125 0.125 0  0.34375 0.125 0  0.375 0.125 0  0.40625 0.125 0  0.4375 0.125 0  0.46875 0.125 0  0.5 0.125 0  0.53125 0.125 0  0.5625 0.125 0  0.59375 0.125 0  0.625 0.125 0  0.65625 0.125 0  0.6875 0.125 0  0.71875 0.125 0  0.75 0.125 0  0.78125 0.125 0  0.8125 0.125 0  0.84375 0.125 0  0.875 0.125 0  0.90625 0.125 0  0.9375 0.125 0  0.96875 0.125 0  1 0.125 0  0 0.15625 0  0.03125 0.15625 0  0.0625 0.15625 0  0.09375 0.15625 0  0.125 0.15625 0  0.15625 0.15625 0  0.1875 0.15625 0  0.21875 0.15625 0  0.25 0.15625 0  0.28125 0.15625 0  0.3125 0.15625 0  0.34375 0.15625 0  0.375 0.15625 0  0.40625 0.15625 0  0.4375 0.15625 0  0.46875 0.15625 0  0.5 0.15625 0  0.53125 0.15625 0  0.5625 0.15625 0  0.59375 0.15625 0  0.625 0.15625 0  0.65625 0.15625 0  0.6875 0.15625 0  0.71875 0.15625 0  0.75 0.15625 0  0.78125 0.15625 0  0.8125 0.15625 0  0.84375 0.15625 0  0.875 0.15625 0  0.90625 0.15625 0  0.9375 0.15625 0  0.96875 0.15625 0  1 0.15625 0  0 0.1875 0  0.03125 0.1875 0  0.0625 0.1875 0  0.09375 0.1875 0  0.125 0.1875 0  0.15625 0.1875 0  0.1875 0.1875 0  0.21875 0.1875 0  0.25 0.1875 0  0.28125 0.1875 0  0.3125 0.1875 0  0.34375 0.1875 0  0.375 0.1875 0  0.40625 0.1875 0  0.4375 0.1875 0  0.46875 0.1875 0  0.5 0.1875 0  0.53125 0.1875 0  0.5625 0.1875 0  0.59375 0.1875 0  0.625 0.1875 0  0.65625 0.1875 0  0.6875 0.1875 0  0.71875 0.1875 0  0.75 0.1875 0  0.78125 0.1875 0  0.8125 0.1875 0  0.84375 0.1875 0  0.875 0.1875 0  0.90625 0.1875 0  0.9375 0.1875 0  0.96875 0.1875 0  1 0.1875 0  0 0.21875 0  0.03125 0.21875 0  0.0625 0.21875 0  0.09375 0.21875 0  0.125 0.21875 0  0.15625 0.21875 0  0.1875 0.21875 0  0.21875 0.21875 0  0.25 0.21875 0  0.28125 0.21875 0  0.3125 0.21875 0  0.34375 0.21875 0  0.375 0.21875 0  0.40625 0.21875 0  0.4375 0.21875 0  0.46875 0.21875 0  0.5 0.21875 0  0.53125 0.21875 0  0.5625 0.21875 0  0.59375 0.21875 0  0.625 0.21875 0  0.65625 0.21875 0  0.6875 0.21875 0  0.71875 0.21875 0  0.75 0.21875 0  0.78125 0.21875 0  0.8125 0.21875 0  0.84375 0.21875 0  0.875 0.21875 0  0.90625 0.21875 0  0.9375 0.21875 0  0.96875 0.21875 0  1 0.21875 0  0 0.25 0  0.03125 0.25 0  0.0625 0.25 0  0.09375 0.25 0  0.125 0.25 0  0.15625 0.25 0  0.1875 0.25 0  0.21875 0.25 0  0.25 0.25 0  0.28125 0.25 0  0.3125 0.25 0  0.34375 0.25 0  0.375 0.25 0  0.40625 0.25 0  0.4375 0.25 0  0.46875 0.25 0  0.5 0.25 0  0.53125 0.25 0  0.5625 0.25 0  0.59375 0.25 0  0.625 0.25 0  0.65625 0.25 0  0.6875 0.25 0  0.71875 0.25 0  0.75 0.25 0  0.78125 0.25 0  0.8125 0.25 0  0.84375 0.25 0  0.875 0.25 0  0.90625 0.25 0  0.9375 0.25 0  0.96875 0.25 0  1 0.25 0  0 0.28125 0  0.03125 0.28125 0  0.0625 0.28125 0  0.09375 0.28125 0  0.125 0.28125 0  0.15625 0.28125 0  0.1875 0.28125 0  0.21875 0.28125 0  0.25 0.28125 0  0.28125 0.28125 0  0.3125 0.28125 0  0.34375 0.28125 0  0.375 0.28125 0  0.40625 0.28125 0  0.4375 0.28125 0  0.46875 0.28125 0  0.5 0.28125 0  0.53125 0.28125 0  0.5625 0.28125 0  0.59375 0.28125 0  0.625 0.28125 0  0.65625 0.28125 0  0.6875 0.28125 0  0.71875 0.28125 0  0.75 0.28125 0  0.78125 0.28125 0  0.8125 0.28125 0  0.84375 0.28125 0  0.875 0.28125 0  0.90625 0.28125 0  0.9375 0.28125 0  0.96875 0.28125 0  1 0.28125 0  0 0.3125 0  0.03125 0.3125 0  0.0625 0.3125 0  0.09375 0.3125 0  0.125 0.3125 0  0.15625 0.3125 0  0.1875 0.3125 0  0.21875 0.3125 0  0.25 0.3125 0  0.28125 0.3125 0  0.3125 0.3125 0  0.34375 0.3125 0  0.375 0.3125 0  0.40625 0.3125 0  0.4375 0.3125 0  0.46875 0.3125 0  0.5 0.3125 0  0.53125 0.3125 0  0.5625 0.3125 0  0.59375 0.3125 0  0.625 0.3125 0  0.65625 0.3125 0  0.6875 0.3125 0  0.71875 0.3125 0  0.75 0.3125 0  0.78125 0.3125 0  0.8125 0.3125 0  0.84375 0.3125 0  0.875 0.3125 0  0.90625 0.3125 0  0.9375 0.3125 0  0.96875 0.3125 0  1 0.3125 0  0 0.34375 0  0.03125 0.34375 0  0.0625 0.34375 0  0.09375 0.34375 0  0.125 0.34375 0  0.15625 0.34375 0  0.1875 0.34375 0  0.21875 0.34375 0  0.25 0.34375 0  0.28125 0.34375 0  0.3125 0.34375 0  0.34375 0.34375 0  0.375 0.34375 0  0.40625 0.34375 0  0.4375 0.34375 0  0.46875 0.34375 0  0.5 0.34375 0  0.53125 0.34375 0  0.5625 0.34375 0  0.59375 0.34375 0  0.625 0.34375 0  0.65625 0.34375 0  0.6875 0.34375 0  0.71875 0.34375 0  0.75 0.34375 0  0.78125 0.34375 0  0.8125 0.34375 0  0.84375 0.34375 0  0.875 0.34375 0  0.90625 0.34375 0  0.9375 0.34375 0  0.96875 0.34375 0  1 0.34375 0  0 0.375 0  0.03125 0.375 0  0.0625 0.375 0  0.09375 0.375 0  0.125 0.375 0  0.15625 0.375 0  0.1875 0.375 0  0.21875 0.375 0  0.25 0.375 0  0.28125 0.375 0  0.3125 0.375 0  0.34375 0.375 0  0.375 0.375 0  0.40625 0.375 0  0.4375 0.375 0  0.46875 0.375 0  0.5 0.375 0  0.53125 0.375 0  0.5625 0.375 0  0.59375 0.375 0  0.625 0.375 0  0.65625 0.375 0  0.6875 0.375 0  0.71875 0.375 0  0.75 0.375 0  0.78125 0.375 0  0.8125 0.375 0  0.84375 0.375 0  0.875 0.375 0  0.90625 0.375 0  0.9375 0.375 0  0.96875 0.375 0  1 0.375 0  0 0.40625 0  0.03125 0.40625 0  0.0625 0.40625 0  0.09375 0.40625 0  0.125 0.40625 0  0.15625 0.40625 0  0.1875 0.40625 0  0.21875 0.40625 0  0.25 0.40625 0  0.28125 0.40625 0  0.3125 0.40625 0  0.34375 0.40625 0  0.375 0.40625 0  0.40625 0.40625 0  0.4375 0.40625 0  0.46875 0.40625 0  0.5 0.40625 0  0.53125 0.40625 0  0.5625 0.40625 0  0.59375 0.40625 0  0.625 0.40625 0  0.65625 0.40625 0  0.6875 0.40625 0  0.71875 0.40625 0  0.75 0.40625 0  0.78125 0.40625 0  0.8125 0.40625 0  0.84375 0.40625 0  0.875 0.40625 0  0.90625 0.40625 0  0.9375 0.40625 0  0.96875 0.40625 0  1 0.40625 0  0 0.4375 0  0.03125 0.4375 0  0.0625 0.4375 0  0.09375 0.4375 0  0.125 0.4375 0  0.15625 0.4375 0  0.1875 0.4375 0  0.21875 0.4375 0  0.25 0.4375 0  0.28125 0.4375 0  0.3125 0.4375 0  0.34375 0.4375 0  0.375 0.4375 0  0.40625 0.4375 0  0.4375 0.4375 0  0.46875 0.4375 0  0.5 0.4375 0  0.53125 0.4375 0  0.5625 0.4375 0  0.59375 0.4375 0  0.625 0.4375 0  0.65625 0.4375 0  0.6875 0.4375 0  0.71875 0.4375 0  0.75 0.4375 0  0.78125 0.4375 0  0.8125 0.4375 0  0.84375 0.4375 0  0.875 0.4375 0  0.90625 0.4375 0  0.9375 0.4375 0  0.96875 0.4375 0  1 0.4375 0  0 0.46875 0  0.03125 0.46875 0  0.0625 0.46875 0  0.09375 0.46875 0  0.125 0.46875 0  0.15625 0.46875 0  0.1875 0.46875 0  0.21875 0.46875 0  0.25 0.46875 0  0.28125 0.46875 0  0.3125 0.46875 0  0.34375 0.46875 0  0.375 0.46875 0  0.40625 0.46875 0  0.4375 0.46875 0  0.46875 0.46875 0  0.5 0.46875 0  0.53125 0.46875 0  0.5625 0.46875 0  0.59375 0.46875 0  0.625 0.46875 0  0.65625 0.46875 0  0.6875 0.46875 0  0.71875 0.46875 0  0.75 0.46875 0  0.78125 0.46875 0  0.8125 0.46875 0  0.84375 0.46875 0  0.875 0.46875 0  0.90625 0.46875 0  0.9375 0.46875 0  0.96875 0.46875 0  1 0.46875 0  0 0.5 0  0.03125 0.5 0  0.0625 0.5 0  0.09375 0.5 0  0.125 0.5 0  0.15625 0.5 0  0.1875 0.5 0  0.21875 0.5 0  0.25 0.5 0  0.28125 0.5 0  0.3125 0.5 0  0.34375 0.5 0  0.375 0.5 0  0.40625 0.5 0  0.4375 0.5 0  0.46875 0.5 0  0.5 0.5 0  0.53125 0.5 0  0.5625 0.5 0  0.59375 0.5 0  0.625 0.5 0  0.65625 0.5 0  0.6875 0.5 0  0.71875 0.5 0  0.75 0.5 0  0.78125 0.5 0  0.8125 0.5 0  0.84375 0.5 0  0.875 0.5 0  0.90625 0.5 0  0.9375 0.5 0  0.96875 0.5 0  1 0.5 0  0 0.53125 0  0.03125 0.53125 0  0.0625 0.53125 0  0.09375 0.53125 0  0.125 0.53125 0  0.15625 0.53125 0  0.1875 0.53125 0  0.21875 0.53125 0  0.25 0.53125 0  0.28125 0.53125 0  0.3125 0.53125 0  0.34375 0.53125 0  0.375 0.53125 0  0.40625 0.53125 0  0.4375 0.53125 0  0.46875 0.53125 0  0.5 0.53125 0  0.53125 0.53125 0  0.5625 0.53125 0  0.59375 0.53125 0  0.625 0.53125 0  0.65625 0.53125 0  0.6875 0.53125 0  0.71875 0.53125 0  0.75 0.53125 0  0.78125 0.531
[...]
<PointData  Scalars="u_sol"> 
<DataArray  type="Float64"  Name="u_sol"  format="ascii">-5.9585600671449761e-05  -7.5309022282123798e-05  4.7204244107582673e-04  1.0275927725544203e-03  1.2865535629052536e-03  1.5172737330805615e-03  2.1035668829148839e-03  3.7989648975801384e-03  5.7673083544889691e-03  7.1441621111515939e-03  1.1316035952075898e-02  1.8334213203751875e-02  2.1228352669261895e-02  1.5502182229250356e-02  2.7750682895959786e-03  -1.2200091487049281e-02  -2.4380381934008072e-02  -2.9745215224850442e-02  -2.5807387883950542e-02  -1.2888519449315574e-02  5.8881581955356165e-03  2.4981783769880844e-02  3.7751171460398587e-02  3.8736852533053423e-02  2.8424298512095301e-02  1.4841407194060229e-02  5.1730990190835945e-03  9.8137226277290358e-04  -7.8997135227292122e-05  -3.3562526223248723e-04  -3.5637223322607678e-04  -2.4917663179080878e-04  -2.9133729692357445e-06  -3.7114266792225134e-04  1.8569234330718164e-03  6.7598328662674765e-03  1.1099245082757916e-02  1.2956182385885549e-02  1.3154509910628772e-02  1.2286336303940186e-02  9.1697451286758373e-03  1.4213303934482102e-03  -1.7116172417128338e-02  -5.1872512542376563e-02  -9.9337783588742803e-02  -1.4936454052930109e-01  -1.9270867375895506e-01  -2.2413995801304282e-01  -2.4130410295474619e-01  -2.4337968975541421e-01  -2.3046186214095274e-01  -2.0345320368345454e-01  -1.6372871849171933e-01  -1.1398483039992909e-01  -5.9052815334671778e-02  -6.0992565068169529e-03  3.6742457954832247e-02  6.2293828358020172e-02  6.7617048520095369e-02  5.7443572946667458e-02  4.0245697056930978e-02  2.3787037487063796e-02  1.2081127099354773e-02  4.8939045225001492e-03  1.0231510054419695e-03  -2.1251847846149682e-04  -6.3891897535163001e-04  3.2921979661910913e-03  1.0145902562640325e-02  1.4075877709580542e-02  1.3489018514096774e-02  8.7485023285877473e-03  -1.7855259548290449e-03  -2.6580596598731420e-02  -7.3503292778076601e-02  -1.3616613721631035e-01  -2.0137554960186027e-01  -2.5980856225475296e-01  -3.0654620244604353e-01  -3.4035524983953414e-01  -3.6197475083816294e-01  -3.7277158942879612e-01  -3.7379252161223736e-01  -3.6520990875495435e-01  -3.4634152935924628e-01  -3.1617588452449880e-01  -2.7375546511100313e-01  -2.1927501260104790e-01  -1.5566078317897211e-01  -8.9894797279779656e-02  -3.2116848864083225e-02  8.2367916595770686e-03  2.8818823675731263e-02  3.3981437757299421e-02  2.8599211157893639e-02  1.8622515440588499e-02  9.3632388667490730e-03  2.5548773849580577e-03  -4.3266144612267627e-04  -8.6667805348456862e-04  4.6616580054339163e-03  1.1484382540497289e-02  1.0761490871062325e-02  2.6883717065936848e-03  -1.5245451142280642e-02  -5.4460676329826145e-02  -1.1811690300676486e-01  -1.9265411805919544e-01  -2.6292878754372723e-01  -3.2075333000303174e-01  -3.6436144153253691e-01  -3.9550878193743233e-01  -4.1664878108006143e-01  -4.2990891817910248e-01  -4.3681123345085587e-01  -4.3830573351491775e-01  -4.3492912506232684e-01  -4.2645760601332600e-01  -4.1135129695787431e-01  -3.8668280833070579e-01  -3.4844642588635227e-01  -2.9320603566488090e-01  -2.2136186638728300e-01  -1.4099958698539147e-01  -6.8102018901428640e-02  -1.9210486563736123e-02  4.9455413824715522e-03  1.4719347349579212e-02  1.4845347308206910e-02  9.2728450479910938e-03  2.8715584449715286e-03  -4.8259239849064684e-04  -8.5091906182211048e-04  5.5391103040324510e-03  8.4778547414407577e-03  -1.2065182375502468e-03  -2.4061881450342704e-02  -6.9992516516056397e-02  -1.4035788719615686e-01  -2.1864105178818286e-01  -2.8808118650759013e-01  -3.4109918198546119e-01  -3.7739270969176797e-01  -4.0011547618925253e-01  -4.1304189737862401e-01  -4.1946803639736258e-01  -4.2198078335357153e-01  -4.2248771507700794e-01  -4.2231987705700830e-01  -4.2223413412974897e-01  -4.2246100670819164e-01  -4.2246635936909133e-01  -4.2009389967709554e-01  -4.1052774714793672e-01  -3.8599944284057280e-01  -3.3792503496832604e-01  -2.6247540146535026e-01  -1.6814491822194977e-01  -7.8702399793987160e-02  -2.2823266392687405e-02  -9.4352566775507017e-04  6.2071470580130784e-03  6.1018914902452879e-03  2.1295058919512475e-03  -4.0654190480568476e-04  -2.0631941187455383e-04  4.2569282687764222e-03  -1.6054928525474786e-03  -2.5726988489654379e-02  -7.1763793115453903e-02  -1.4174485692940239e-01  -2.1956854409819951e-01  -2.8642155073654957e-01  -3.3396031329986409e-01  -3.6248846839781895e-01  -3.7639066110295044e-01  -3.8101567407901377e-01  -3.8098101709385712e-01  -3.7941315583364876e-01  -3.7786514428238044e-01  -3.7681347799776016e-01  -3.7629416045268965e-01  -3.7638124613758844e-01  -3.7752139222445441e-01  -3.8054834053964343e-01  -3.8614771818254401e-01  -3.9350282750761129e-01  -3.9795351070707924e-01  -3.8913321163817594e-01  -3.5291118053900117e-01  -2.7957757642150954e-01  -1.7634866680390038e-01  -7.4415199559837220e-02  -1.6520516694234471e-02  -1.0542013275274203e-04  2.9030963349206081e-03  1.0768887167476990e-03  -1.6890023760618371e-04  1.0521217005038043e-03  -6.4341882019116063e-04  -2.0330348462023973e-02  -6.2572345956067033e-02  -1.2705001261404961e-01  -2.0190324415742003e-01  -2.6678053928368828e-01  -3.1090977097145123e-01  -3.3437925089009934e-01  -3.4271523405217430e-01  -3.4298658478121535e-01  -3.4096757389720656e-01  -3.3973447471982143e-01  -3.3991006821044917e-01  -3.4089437426012970e-01  -3.4193819659265062e-01  -3.4259422403850298e-01  -3.4277633334908025e-01  -3.4265655060672040e-01  -3.4272190421356635e-01  -3.4405923205155464e-01  -3.4848342921016146e-01  -3.5747075291683617e-01  -3.6856886785234050e-01  -3.7067563851761315e-01  -3.4450216936857780e-01  -2.7388184449531960e-01  -1.6465739594990406e-01  -5.7292304173354958e-02  -6.8391105175776958e-03  7.8256136368401994e-04  1.8093955168168190e-03  -4.1797304439499260e-04  2.2418550296490532e-03  -9.4427368941561052e-03  -4.4954747364363494e-02  -1.0135159215056748e-01  -1.7073833305848202e-01  -2.3468932551344629e-01  -2.7861493965074485e-01  -3.0074077361282880e-01  -3.0707586049667424e-01  -3.0605723576817967e-01  -3.0442565204458671e-01  -3.0492839644293074e-01  -3.0721498880152259e-01  -3.1000927642984288e-01  -3.1247005913341114e-01  -3.1434385064838716e-01  -3.1567973244032449e-01  -3.1659879719455558e-01  -3.1715187485173069e-01  -3.1725502785334275e-01  -3.1681786383519384e-01  -3.1623856054261867e-01  -3.1737403566723377e-01  -3.2363585431881775e-01  -3.3574679883356595e-01  -3.4309563315213620e-01  -3.2146196740290101e-01  -2.4921430501819994e-01  -1.3348946935591005e-01  -3.1958036697026723e-02  2.3706711223464333e-03  2.9322236666772384e-04  8.9588193589246721e-05  3.0194602413608539e-03  -2.0112592779900483e-02  -6.8333561403262424e-02  -1.3006452213103945e-01  -1.9276568040090056e-01  -2.3941179259621356e-01  -2.6393506154080471e-01  -2.7127942301428676e-01  -2.7060250332031804e-01  -2.6967470516729813e-01  -2.7135280506321952e-01  -2.7463534470713313e-01  -2.7789177335378173e-01  -2.8043645017050062e-01  -2.8234318956659582e-01  -2.8387879679790129e-01  -2.8526100232577756e-01  -2.8661623423126770e-01  -2.8801737896683460e-01  -2.8945432733544102e-01  -2.9068718012141109e-01  -2.9113626439817480e-01  -2.9027811320507380e-01  -2.8926835088875108e-01  -2.9266758370985946e-01  -3.0403985130768568e-01  -3.1262109009924904e-01  -2.8845689748976283e-01  -2.0773084893821173e-01  -8.5687988930677306e-02  -9.2274396096858318e-03  1.7949990632984323e-03  4.9253553376563748e-04  3.4148154811678021e-03  -2.9012039590588561e-02  -8.3840384571328599e-02  -1.4273970937096195e-01  -1.9321531767361058e-01  -2.2345230904708341e-01  -2.3474248052501226e-01  -2.3574552291846404e-01  -2.3534445897928344e-01  -2.3747418285634625e-01  -2.4114641423603947e-01  -2.4448613316495196e-01  -2.4694338385257045e-01  -2.4883857299981835e-01  -2.5052435061177947e-01  -2.5214206532002059e-01  -2.5371966728016671e-01  -2.5527462512767818e-01  -2.5686111860201738e-01  -2.5857527866192292e-01  -2.6050404445375508e-01  -2.6251326272149950e-01  -2.6386200638090590e-01  -2.6330478003546515e-01  -2.6124233347176495e-01  -2.6315320510428819e-01  -2.7432462332758767e-01  -2.8060592297472370e-01  -2.4540151678740751e-01  -1.4882672171111413e-01  -3.4111767403462771e-02  8.5228772483629551e-03  -2.3524550821111658e-03  3.5181062469858086e-03  -3.3530878288614070e-02  -8.8667249969246090e-02  -1.3986098607096442e-01  -1.7763144722566171e-01  -1.9582807883098935e-01  -2.0051774631269981e-01  -2.0095883507201515e-01  -2.0306530944238885e-01  -2.0693061422457151e-01  -2.1050639628574172e-01  -2.1311691264850019e-01  -2.1521777015450555e-01  -2.1722728148681322e-01  -2.1922639118687834e-01  -2.2116929004651215e-01  -2.2302654696839008e-01  -2.2480566384515641e-01  -2.2652723200133662e-01  -2.2821916613183868e-01  -2.2995672583043919e-01  -2.3189810146296996e-01  -2.3408771678410784e-01  -2.3576993751273678e-01  -2.3514691790489087e-01  -2.3236259918976662e-01  -2.3447266375987941e-01  -2.4625774458372554e-01  -2.4438678144394851e-01  -1.8817181580526651e-01  -7.4045219840669724e-02  -6.2515879115735036e-03  -2.0741359569619562e-03  3.4783656888766122e-03  -3.2968337616051703e-02  -8.3653792328149582e-02  -1.2539236725361547e-01  -1.5262113275124414e-01  -1.6358936980695049e-01  -1.6633396853676860e-01  -1.6836777325266064e-01  -1.7219678733796867e-01  -1.7619285749000488e-01  -1.7919169368620708e-01  -1.8157589466787249e-01  -1.8386925721736888e-01  -1.8615927876023045e-01  -1.8837101543736476e-01  -1.9048283862552334e-01  -1.9252117707590116e-01  -1.9451722291704762e-01  -1.9648484140166153e-01  -1.9841086296429333e-01  -2.0025491047342800e-01  -2.0201203119906275e-01  -2.0385540813252495e-01  -2.0598529126945336e-01  -2.0753627420897910e-01  -2.0615829843928457e-01  -2.0284955978544300e-01  -2.0726727103906969e-01  -2.1768003920857074e-01  -1.9755878752630288e-01  -1.1010335469362308e-01  -1.8396225777998886e-02  5.5019876283181985e-03  3.3716535921212423e-03  -2.8103993701119084e-02  -7.1445074746052259e-02  -1.0395577534256453e-01  -1.2344334846813766e-01  -1.3079138353717312e-01  -1.3374606480259335e-01  -1.3724865327221533e-01  -1.4157191242852687e-01  -1.4515909408842823e-01  -1.4789737232380723e-01  -1.5040259945970177e-01  -1.5288180265727588e-01  -1.5526375959560426e-01  -1.5752968204506368e-01  -1.5972745722320628e-01  -1.6190241161010072e-01  -1.6408091586546653e-01  -1.6627310304327697e-01  -1.6847271053456225e-01  -1.7064051506949299e-01  -1.7268149834592036e-01  -1.7450631107063316e-01  -1.7629766227171062e-01  -1.7834076691853062e-01  -1.7930764766264312e-01  -1.7639748867122293e-01  -1.7387434962352508e-01  -1.8200368017844920e-01  -1.8228417465201993e-01  -1.2696722158651513e-01  -2.3680081000287418e-02  1.3622498465254715e-02  3.2279832468735492e-03  -2.0339675075785220e-02  -5.4927144068741642e-02  -7.9253952574800654e-02  -9.3326315440050933e-02  -9.9109870974297784e-02  -1.0272984926103282e-01  -1.0690505910127106e-01  -1.1103960854334048e-01  -1.1426151481922224e-01  -1.1695315764284507e-01  -1.1953768545739950e-01  -1.2202636640261778e-01  -1.2438774608971499e-01  -1.2667992494932762e-01  -1.2896427902044805e-01  -1.3127468200935538e-01  -1.3362923822190489e-01  -1.3603453121410561e-01  -1.3848317169642713e-01  -1.4094975221607128e-01  -1.4337513247461323e-01  -1.4562304975240073e-01  -1.4754679948120542e-01  -1.4939639023464399e-01  -1.5132524518000659e-01  -1.5089577721492595e-01  -1.4630840787181174e-01  -1.4786189640050124e-01  -1.5506367280873140e-01  -1.2574845095377879e-01  -3.1726446644287212e-02  1.4815006152157863e-02  2.9975477026884679e-03  -1.1048274185406083e-02  -3.6336708415595137e-02  -5.3650196826266934e-02  -6.3828654945106672e-02  -6.8893702451793909e-02  -7.2850964864947770e-02  -7.7013487278655521e-02  -8.0715377188589996e-02  -8.3669457691408683e-02  -8.6301128074222425e-02  -8.8824473531556078e-02  -9.1222468976834920e-02  -9.3535106725188680e-02  -9.5839989824740235e-02  -9.8189057489330350e-02  -1.0061450319242538e-01  -1.0313805161351421e-01  -1.0576766367347171e-01  -1.0849500861980993e-01  -1.1129197204104462e-01  -1.1410616209531171e-01  -1.1684785563825709e-01  -1.1933263959270066e-01  -1.2142520958896921e-01  -1.2352604781679025e-01  -1.2499916825529025e-01  -1.2199487796038780e-01  -1.1883940855829436e-01  -1.2561178463210249e-01  -1.1415790895997605e-01  -3.8375198557853880e-02  1.2531469439911517e-02  2.6311263395547577e-03  -1.3483635413583288e-03  -1.7163359967612105e-02  -2.8362719018857323e-02  -3.5429375103199046e-02  -3.9957943067332219e-02  -4.3831995792354771e-02  -4.7580634295287964e-02  -5.0778320837017776e-02  -5.3455616431034504e-02  -5.5907778425715156e-02  -5.8240982175228960e-02  -6.0479202701639645e-02  -6.2695830769073271e-02  -6.4964929731732055e-02  -6.7338092935406643e-02  -6.9853650271315335e-02  -7.2537941071961876e-02  -7.5402236690902139e-02  -7.8439616138832241e-02  -8.1624638331060789e-02  -8.4908266060148577e-02  -8.8205976937282479e-02  -9.1386199534164908e-02  -9.4205002609908037e-02  -9.6686912846897177e-02  -9.9222803727340450e-02  -9.8938171708603223e-02  -9.4615642852861087e-02  -9.8879011425964239e-02  -9.8724909964763866e-02  -4.2547399181772416e-02  9.2476349594565483e-03  1.7899283449071685e-03  7.7636494820902992e-03  1.9076332166511204e-03  -3.9155531368569316e-03  -8.0651395342144199e-03  -1.1977728234719646e-02  -1.5394767282042348e-02  -1.8497785910867835e-02  -2.1125198656776291e-02  -2.3452563580656383e-02  -2.5617420002525142e-02  -2.7685683501033974e-02  -2.9716828141275832e-02  -3.1792316339412152e-02  -3.3981557494657366e-02  -3.6341863387253766e-02  -3.8919723690341516e-02  -4.1751547390488385e-02  -4.4857537259982178e-02  -4.8235886397205142e-02  -5.1862450540865079e-02  -5.5695306350377415e-02  -5.9657671199976649e-02  -6.3631042161197582e-02  -6.7441950736660081e-02  -7.0827011225687367e-02  -7.4204482344160008e-02  -7.6540685516048479e-02  -7.3688705581677422e-02  -7.6052179978361958e-02  -8.2614348338779148e-02  -4.3524894872913583e-02  6.2632855820934875e-03  6.4666959559467471e-04  1.5787616729958182e-02  2.0243028872024331e-02  1.9696392628728885e-02  1.8547784969025510e-02  1.5407803247625895e-02  1.2541520771752425e-02  1.0160599497056055e-02  8.1526142978295951e-03  6.2620874268876341e-03  4.4835114679702944e-03  2.7750112190430012e-03  1.0396913088389125e-03  -8.0812016304231756e-04  -2.8406449247827862e-03  -5.1268298762218757e-03  -7.7269685194874850e-03  -1.0687551973743065e-02  -1.4034083074384935e-02  -1.7774350897599496e-02  -2.1893962068603095e-02  -2.6354528217288634e-02  -3.1095499014020266e-02  -3.5998685196890257e-02  -4.0934080082204956e-02  -4.5662607680202298e-02  -5.0158584691964735e-02  -5.4711981220677504e-02  -5.4793504258326943e-02  -5.6715782069511299e-02  -6.7362811734583805e-02  -4.2215647572506738e-02  3.8628066207372861e-03  -8.1605339919123298e-04  2.2073016433290970e-02  3.7504510000602273e-02  4.2563474757223010e-02  4.4614668315915852e-02  4.2586751334094390e-02  4.0274807473770449e-02  3.8663776354092426e-02  3.7364882200399907e-02  3.6006566783229881e-02  3.4671979396565744e-02  3.3375233973753062e-02  3.1992038194656992e-02  3.0422893714607911e-02  2.8591697469472911e-02  2.6417307997470042e-02  2.3826108176687760e-02  2.0762786779989491e-02  1.7186855405441095e-02  1.3072270802462848e-02  8.4220456399760578e-03  3.2633729628161997e-03  -2.3505627469773264e-03  -8.3316302429634805e-03  -1.4537520680236329e-02  -2.0863907411769588e-02  -2.6929877935607294e-02  -3.3509144902670665e-02  -3.7054281797424850e-02  -4.0008915506670795e-02  -5.3487049418724210e-02  -3.9524545714968773e-02  1.9701118178824025e-03  -2.6129845247337166e-03  2.5939331494292839e-02  5.3172082916652499e-02  6.4684743673025180e-02  7.0320313211551341e-02  6.9811267542922772e-02  6.7860796163448103e-02  6.6801758613713375e-02  6.6200982056832669e-02  6.5466381367843468e-02  6.4659409944345839e-02  6.3873032702965085e-02  6.2972170683905371e-02  6.1814128970150539e-02  6.0302240884153431e-02  5.8342899878363816e-02  5.5845568536100496e-02  5.2735011901837839e-02  4.8950082265594788e-02  4.4458046272033515e-02  3.9252807204974559e-02  3.3337651288099408e-02  2.6764011770992472e-02  1.9588036608711102e-02  1.1948365003891598e-02  3.8588553888344577e-03  -4.1923268148526156e-03  -1.2807334147466043e-02  -1.9959813917541390e-02  -2.5155686763455795e-02  -4.1177732739245923e-02  -3.6464796850697499e-02  4.1449332731935244e-04  -4.6165818389074268e-03  2.6903553742915916e-02  6.6449332498291339e-02  8.5797896035389135e-02  9.5596411665749309e-02  9.7268391437721535e-02  9.5795948341362833e-02  9.5097227268685511e-02  9.5216655612735970e-02  9.5238580111183621e-02  9.5045772212728502e-02  9.4797726124810189e-02  9.4421598201958612e-02  9.3733113733184811e-02  9.2593192393016888e-02  9.0889893458484264e-02  8.8518617843371047e-02  8.5383886189021582e-02  8.1415465075066418e-02  7.6565648125303309e-02  7.0790766907845373e-02  6.4081207071545854e-02  5.6480817649912467e-02  4.8014974213701850e-02  3.8774939351494918e-02  2.8797832867941329e-02  1.8442577417376291e-02  7.6189258254116248e-03  -3.1284477151315633e-03  -1.1524472363547951e-02  -3.0348911007567633e-02  -3.3657669236221703e-02  -9.7827182823411168e-04  -6.3428179620051567e-03  2.5037017914542929e-02  7.5995933325198564e-02  1.0506270614052356e-01  1.2006584353009100e-01  1.2468888634193898e-01  1.2385682317305126e-01  1.2301146770763717e-01  1.2352750349374673e-01  1.2437651815161962e-01  1.2499972584794494e-01  1.2546884843139863e-01  1.2578897209702841e-01  1.2577524867891920e-01  1.2521955667122581e-01  1.2396286256881216e-01  1.2187524309765016e-01  1.1884559360485950e-01  1.1478265370570673e-01  1.0960047549803746e-01  1.0325142298215080e-01  9.5739030423587640e-02  8.7066183673868675e-02  7.7226768835162593e-02  6.6256147349589775e-02  5.4242937721564112e-02  4.1413725641139119e-02  2.8120599175280401e-02  1.3747778066099605e-02  1.4139031760562000e-03  -2.0856778957318352e-02  -3.1532248077046653e-02  -2.3398256319508435e-03  -6.9541113715354975e-03  2.1153570605147869e-02  7.9958159334601334e-02  1.2071778052703079e-01  1.4264928405355737e-01  1.5160647203342856e-01  1.5261071438830659e-01  1.5180333656820644e-01  1.5245450805671032e-01  1.5412756318256710e-01  1.5578277802471685e-01  1.5712979690241774e-01  1.5818745374696436e-01  1.5884716401177804e-01  1.5889343172262418e-01  1.5811278758283381e-01  1.5633493776028209e-01  1.5342263524919270e-01  1.4925830794702788e-01  1.4376390582821219e-01  1.3689509728321436e-01  1.2859766020361138e-01  1.1881552229905740e-01  1.0752682620239148e-01  9.4725962298519983e-02  8.0549038711002247e-02  6.5172290625004778e-02  4.9115818933280597e-02  3.1053610358148014e-02  1.4055760916100113e-02  -1.2465747017098057e-02  -3.0226877186776937e-02  -3.7912246310733929e-03  -5.5099399928004323e-03  1.6403039988298777e-02  7.5935432383171853e-02  1.2974935666747081e-01  1.6132357438907949e-01  1.7626050135176979e-01  1.8032546084894749e-01  1.7992715010457780e-01  1.8016039748202881e-01  1.8223456505006641e-01  1.8509145293549406e-01  1.8782131920136821e-01  1.9011046345400978e-01  1.9183278978825974e-01  1.9280176182132824e-01  1.9279202756818381e-01  1.9159325453673257e-01  1.8903648864056230e-01  1.8499589885146339e-01  1.7936726351655682e-01  1.7204089918291252e-01  1.6294635249188782e-01  1.5202358877057251e-01  1.3923749744819350e-01  1.2454311681066842e-01  1.0816643563950927e-01  9.0194605251975299e-02  7.1180626789675058e-02  4.9119956246226469e-02  2.6663441645452503e-02  -4.8572303949964224e-03  -2.9796264898024581e-02  -5.3697595427615995e-03  -2.5430559633986285e-03  1.0962117251924886e-02  6.3014671574329745e-02  1.2829537294162530e-01  1.7275942754994092e-01  1.9692317306954166e-01  2.0700424694804431e-01  2.0945010280639342e-01  2.1016300335437565e-01  2.1236629628865045e-01  2.1611462234050660e-01  2.2027426964393085e-01  2.2401477177069620e-01  2.2694904928579734e-01  2.2886916931677687e-01  2.2958114429989857e-01