<?xml version="1.0"?>
<VTKFile type="UnstructuredGrid"  version="0.1"  >
<UnstructuredGrid>
<Piece  NumberOfPoints="1089" NumberOfCells="1024">
<Points>
<DataArray  type="Float64"  NumberOfComponents="3"  format="ascii">0 0 0  0.03125 0 0  0.0625 0 0  0.09375 0 0  0.125 0 0  0.15625 0 0  0.1875 0 0  0.21875 0 0  0.25 0 0  0.28125 0 0  0.3125 0 0  0.34375 0 0  0.375 0 0  0.40625 0 0  0.4375 0 0  0.46875 0 0  0.5 0 0  0.53125 0 0  0.5625 0 0  0.59375 0 0  0.625 0 0  0.65625 0 0  0.6875 0 0  0.71875 0 0  0.75 0 0  0.78125 0 0  0.8125 0 0  0.84375 0 0  0.875 0 0  0.90625 0 0  0.9375 0 0  0.96875 0 0  1 0 0  0 0.03125 0  0.03125 0.03125 0  0.0625 0.03125 0  0.09375 0.03125 0  0.125 0.03125 0  0.15625 0.03125 0  0.1875 0.03125 0  0.21875 0.03125 0  0.25 0.03125 0  0.28125 0.03125 0  0.3125 0.03125 0  0.34375 0.03125 0  0.375 0.03125 0  0.40625 0.03125 0  0.4375 0.03125 0  0.46875 0.03125 0  0.5 0.03125 0  0.53125 0.03125 0  0.5625 0.03125 0  0.59375 0.03125 0  0.625 0.03125 0  0.65625 0.03125 0  0.6875 0.03125 0  0.71875 0.03125 0  0.75 0.03125 0  0.78125 0.03125 0  0.8125 0.03125 0  0.84375 0.03125 0  0.875 0.03125 0  0.90625 0.03125 0  0.9375 0.03125 0  0.96875 0.03125 0  1 0.03125 0  0 0.0625 0  0.03125 0.0625 0  0.0625 0.0625 0  0.09375 0.0625 0  0.125 0.0625 0  0.15625 0.0625 0  0.1875 0.0625 0  0.21875 0.0625 0  0.25 0.0625 0  0.28125 0.0625 0  0.3125 0.0625 0  0.34375 0.0625 0  0.375 0.0625 0  0.40625 0.0625 0  0.4375 0.0625 0  0.46875 0.0625 0  0.5 0.0625 0  0.53125 0.0625 0  0.5625 0.0625 0  0.59375 0.0625 0  0.625 0.0625 0  0.65625 0.0625 0  0.6875 0.0625 0  0.71875 0.0625 0  0.75 0.0625 0  0.78125 0.0625 0  0.8125 0.0625 0  0.84375 0.0625 0  0.875 0.0625 0  0.90625 0.0625 0  0.9375 0.0625 0  0.96875 0.0625 0  1 0.0625 0  0 0.09375 0  0.03125 0.09375 0  0.0625 0.09375 0  0.09375 0.09375 0  0.125 0.09375 0  0.15625 0.09375 0  0.1875 0.09375 0  0.21875 0.09375 0  0.25 0.09375 0  0.28125 0.09375 0  0.3125 0.09375 0  0.34375 0.09375 0  0.375 0.09375 0  0.40625 0.09375 0  0.4375 0.09375 0  0.46875 0.09375 0  0.5 0.09375 0  0.53125 0.09375 0  0.5625 0.09375 0  0.59375 0.09375 0  0.625 0.09375 0  0.65625 0.09375 0  0.6875 0.09375 0  0.71875 0.09375 0  0.75 0.09375 0  0.78125 0.09375 0  0.8125 0.09375 0  0.84375 0.09375 0  0.875 0.09375 0  0.90625 0.09375 0  0.9375 0.09375 0  0.96875 0.09375 0  1 0.09375 0  0 0.125 0  0.03125 0.125 0  0.0625 0.125 0  0.09375 0.125 0  0.125 0.125 0  0.15625 0.125 0  0.1875 0.125 0  0.21875 0.125 0  0.25 0.125 0  0.28125 0.125 0  0.3125 0.125 0  0.34375 0.125 0  0.375 0.125 0  0.40625 0.125 0  0.4375 0.125 0  0.46875 0.125 0  0.5 0.125 0  0.53125 0.125 0  0.5625 0.125 0  0.59375 0.125 0  0.625 0.125 0  0.65625 0.125 0  0.6875 0.125 0  0.71875 0.125 0  0.75 0.125 0  0.78125 0.125 0  0.8125 0.125 0  0.84375 0.125 0  0.875 0.125 0  0.90625 0.125 0  0.9375 0.125 0  0.96875 0.125 0  1 0.125 0  0 0.15625 0  0.03125 0.15625 0  0.0625 0.15625 0  0.09375 0.15625 0  0.125 0.15625 0  0.15625 0.15625 0  0.1875 0.15625 0  0.21875 0.15625 0  0.25 0.15625 0  0.28125 0.15625 0  0.3125 0.15625 0  0.34375 0.15625 0  0.375 0.15625 0  0.40625 0.15625 0  0.4375 0.15625 0  0.46875 0.15625 0  0.5 0.15625 0  0.53125 0.15625 0  0.5625 0.15625 0  0.59375 0.15625 0  0.625 0.15625 0  0.65625 0.15625 0  0.6875 0.15625 0  0.71875 0.15625 0  0.75 0.15625 0  0.78125 0.15625 0  0.8125 0.15625 0  0.84375 0.15625 0  0.875 0.15625 0  0.90625 0.15625 0  0.9375 0.15625 0  0.96875 0.15625 0  1 0.15625 0  0 0.1875 0  0.03125 0.1875 0  0.0625 0.1875 0  0.09375 0.1875 0  0.125 0.1875 0  0.15625 0.1875 0  0.1875 0.1875 0  0.21875 0.1875 0  0.25 0.1875 0  0.28125 0.1875 0  0.3125 0.1875 0  0.34375 0.1875 0  0.375 0.1875 0  0.40625 0.1875 0  0.4375 0.1875 0  0.46875 0.1875 0  0.5 0.1875 0  0.53125 0.1875 0  0.5625 0.1875 0  0.59375 0.1875 0  0.625 0.1875 0  0.65625 0.1875 0  0.6875 0.1875 0  0.71875 0.1875 0  0.75 0.1875 0  0.78125 0.1875 0  0.8125 0.1875 0  0.84375 0.1875 0  0.875 0.1875 0  0.90625 0.1875 0  0.9375 0.1875 0  0.96875 0.1875 0  1 0.1875 0  0 0.21875 0  0.03125 0.21875 0  0.0625 0.21875 0  0.09375 0.21875 0  0.125 0.21875 0  0.15625 0.21875 0  0.1875 0.21875 0  0.21875 0.21875 0  0.25 0.21875 0  0.28125 0.21875 0  0.3125 0.21875 0  0.34375 0.21875 0  0.375 0.21875 0  0.40625 0.21875 0  0.4375 0.21875 0  0.46875 0.21875 0  0.5 0.21875 0  0.53125 0.21875 0  0.5625 0.21875 0  0.59375 0.21875 0  0.625 0.21875 0  0.65625 0.21875 0  0.6875 0.21875 0  0.71875 0.21875 0  0.75 0.21875 0  0.78125 0.21875 0  0.8125 0.21875 0  0.84375 0.21875 0  0.875 0.21875 0  0.90625 0.21875 0  0.9375 0.21875 0  0.96875 0.21875 0  1 0.21875 0  0 0.25 0  0.03125 0.25 0  0.0625 0.25 0  0.09375 0.25 0  0.125 0.25 0  0.15625 0.25 0  0.1875 0.25 0  0.21875 0.25 0  0.25 0.25 0  0.28125 0.25 0  0.3125 0.25 0  0.34375 0.25 0  0.375 0.25 0  0.40625 0.25 0  0.4375 0.25 0  0.46875 0.25 0  0.5 0.25 0  0.53125 0.25 0  0.5625 0.25 0  0.59375 0.25 0  0.625 0.25 0  0.65625 0.25 0  0.6875 0.25 0  0.71875 0.25 0  0.75 0.25 0  0.78125 0.25 0  0.8125 0.25 0  0.84375 0.25 0  0.875 0.25 0  0.90625 0.25 0  0.9375 0.25 0  0.96875 0.25 0  1 0.25 0  0 0.28125 0  0.03125 0.28125 0  0.0625 0.28125 0  0.09375 0.28125 0  0.125 0.28125 0  0.15625 0.28125 0  0.1875 0.28125 0  0.21875 0.28125 0  0.25 0.28125 0  0.28125 0.28125 0  0.3125 0.28125 0  0.34375 0.28125 0  0.375 0.28125 0  0.40625 0.28125 0  0.4375 0.28125 0  0.46875 0.28125 0  0.5 0.28125 0  0.53125 0.28125 0  0.5625 0.28125 0  0.59375 0.28125 0  0.625 0.28125 0  0.65625 0.28125 0  0.6875 0.28125 0  0.71875 0.28125 0  0.75 0.28125 0  0.78125 0.28125 0  0.8125 0.28125 0  0.84375 0.28125 0  0.875 0.28125 0  0.90625 0.28125 0  0.9375 0.28125 0  0.96875 0.28125 0  1 0.28125 0  0 0.3125 0  0.03125 0.3125 0  0.0625 0.3125 0  0.09375 0.3125 0  0.125 0.3125 0  0.15625 0.3125 0  0.1875 0.3125 0  0.21875 0.3125 0  0.25 0.3125 0  0.28125 0.3125 0  0.3125 0.3125 0  0.34375 0.3125 0  0.375 0.3125 0  0.40625 0.3125 0  0.4375 0.3125 0  0.46875 0.3125 0  0.5 0.3125 0  0.53125 0.3125 0  0.5625 0.3125 0  0.59375 0.3125 0  0.625 0.3125 0  0.65625 0.3125 0  0.6875 0.3125 0  0.71875 0.3125 0  0.75 0.3125 0  0.78125 0.3125 0  0.8125 0.3125 0  0.84375 0.3125 0  0.875 0.3125 0  0.90625 0.3125 0  0.9375 0.3125 0  0.96875 0.3125 0  1 0.3125 0  0 0.34375 0  0.03125 0.34375 0  0.0625 0.34375 0  0.09375 0.34375 0  0.125 0.34375 0  0.15625 0.34375 0  0.1875 0.34375 0  0.21875 0.34375 0  0.25 0.34375 0  0.28125 0.34375 0  0.3125 0.34375 0  0.34375 0.34375 0  0.375 0.34375 0  0.40625 0.34375 0  0.4375 0.34375 0  0.46875 0.34375 0  0.5 0.34375 0  0.53125 0.34375 0  0.5625 0.34375 0  0.59375 0.34375 0  0.625 0.34375 0  0.65625 0.34375 0  0.6875 0.34375 0  0.71875 0.34375 0  0.75 0.34375 0  0.78125 0.34375 0  0.8125 0.34375 0  0.84375 0.34375 0  0.875 0.34375 0  0.90625 0.34375 0  0.9375 0.34375 0  0.96875 0.34375 0  1 0.34375 0  0 0.375 0  0.03125 0.375 0  0.0625 0.375 0  0.09375 0.375 0  0.125 0.375 0  0.15625 0.375 0  0.1875 0.375 0  0.21875 0.375 0  0.25 0.375 0  0.28125 0.375 0  0.3125 0.375 0  0.34375 0.375 0  0.375 0.375 0  0.40625 0.375 0  0.4375 0.375 0  0.46875 0.375 0  0.5 0.375 0  0.53125 0.375 0  0.5625 0.375 0  0.59375 0.375 0  0.625 0.375 0  0.65625 0.375 0  0.6875 0.375 0  0.71875 0.375 0  0.75 0.375 0  0.78125 0.375 0  0.8125 0.375 0  0.84375 0.375 0  0.875 0.375 0  0.90625 0.375 0  0.9375 0.375 0  0.96875 0.375 0  1 0.375 0  0 0.40625 0  0.03125 0.40625 0  0.0625 0.40625 0  0.09375 0.40625 0  0.125 0.40625 0  0.15625 0.40625 0  0.1875 0.40625 0  0.21875 0.40625 0  0.25 0.40625 0  0.28125 0.40625 0  0.3125 0.40625 0  0.34375 0.40625 0  0.375 0.40625 0  0.40625 0.40625 0  0.4375 0.40625 0  0.46875 0.40625 0  0.5 0.40625 0  0.53125 0.40625 0  0.5625 0.40625 0  0.59375 0.40625 0  0.625 0.40625 0  0.65625 0.40625 0  0.6875 0.40625 0  0.71875 0.40625 0  0.75 0.40625 0  0.78125 0.40625 0  0.8125 0.40625 0  0.84375 0.40625 0  0.875 0.40625 0  0.90625 0.40625 0  0.9375 0.40625 0  0.96875 0.40625 0  1 0.40625 0  0 0.4375 0  0.03125 0.4375 0  0.0625 0.4375 0  0.09375 0.4375 0  0.125 0.4375 0  0.15625 0.4375 0  0.1875 0.4375 0  0.21875 0.4375 0  0.25 0.4375 0  0.28125 0.4375 0  0.3125 0.4375 0  0.34375 0.4375 0  0.375 0.4375 0  0.40625 0.4375 0  0.4375 0.4375 0  0.46875 0.4375 0  0.5 0.4375 0  0.53125 0.4375 0  0.5625 0.4375 0  0.59375 0.4375 0  0.625 0.4375 0  0.65625 0.4375 0  0.6875 0.4375 0  0.71875 0.4375 0  0.75 0.4375 0  0.78125 0.4375 0  0.8125 0.4375 0  0.84375 0.4375 0  0.875 0.4375 0  0.90625 0.4375 0  0.9375 0.4375 0  0.96875 0.4375 0  1 0.4375 0  0 0.46875 0  0.03125 0.46875 0  0.0625 0.46875 0  0.09375 0.46875 0  0.125 0.46875 0  0.15625 0.46875 0  0.1875 0.46875 0  0.21875 0.46875 0  0.25 0.46875 0  0.28125 0.46875 0  0.3125 0.46875 0  0.34375 0.46875 0  0.375 0.46875 0  0.40625 0.46875 0  0.4375 0.46875 0  0.46875 0.46875 0  0.5 0.46875 0  0.53125 0.46875 0  0.5625 0.46875 0  0.59375 0.46875 0  0.625 0.46875 0  0.65625 0.46875 0  0.6875 0.46875 0  0.71875 0.46875 0  0.75 0.46875 0  0.78125 0.46875 0  0.8125 0.46875 0  0.84375 0.46875 0  0.875 0.46875 0  0.90625 0.46875 0  0.9375 0.46875 0  0.96875 0.46875 0  1 0.46875 0  0 0.5 0  0.03125 0.5 0  0.0625 0.5 0  0.09375 0.5 0  0.125 0.5 0  0.15625 0.5 0  0.1875 0.5 0  0.21875 0.5 0  0.25 0.5 0  0.28125 0.5 0  0.3125 0.5 0  0.34375 0.5 0  0.375 0.5 0  0.40625 0.5 0  0.4375 0.5 0  0.46875 0.5 0  0.5 0.5 0  0.53125 0.5 0  0.5625 0.5 0  0.59375 0.5 0  0.625 0.5 0  0.65625 0.5 0  0.6875 0.5 0  0.71875 0.5 0  0.75 0.5 0  0.78125 0.5 0  0.8125 0.5 0  0.84375 0.5 0  0.875 0.5 0  0.90625 0.5 0  0.9375 0.5 0  0.96875 0.5 0  1 0.5 0  0 0.53125 0  0.03125 0.53125 0  0.0625 0.53125 0  0.09375 0.53125 0  0.125 0.53125 0  0.15625 0.53125 0  0.1875 0.53125 0  0.21875 0.53125 0  0.25 0.53125 0  0.28125 0.53125 0  0.3125 0.53125 0  0.34375 0.53125 0  0.375 0.53125 0  0.40625 0.53125 0  0.4375 0.53125 0  0.46875 0.53125 0  0.5 0.53125 0  0.53125 0.53125 0  0.5625 0.53125 0  0.59375 0.53125 0  0.625 0.53125 0  0.65625 0.53125 0  0.6875 0.53125 0  0.71875 0.53125 0  0.75 0.53125 0  0.78125 0.531
[...]
<PointData  Scalars="v_sol"> 
<DataArray  type="Float64"  Name="v_sol"  format="ascii">4.5744432165784612e-05  3.3522176992574465e-04  4.4199474557605686e-04  3.0435734560782052e-04  1.1461720141584298e-04  4.6151406019863630e-05  -1.2869260643811020e-04  -1.4006203503897450e-04  -2.5992416227092231e-04  -1.8987128762959389e-03  -4.5343874594899391e-03  -5.8497919100192509e-03  -5.0568758414499086e-03  -3.2086025509651282e-03  -1.2425261002797837e-03  3.8692466891991612e-04  1.6024214157658988e-03  2.3696768317943194e-03  2.8158844899862944e-03  3.2132041186806381e-03  3.5544660556191465e-03  3.8729160057896623e-03  3.9416939031018949e-03  3.6351249014914266e-03  2.2576929174126710e-03  1.2374897544982299e-04  -1.5326269841517322e-03  -2.0636660577750747e-03  -1.5138914469344348e-03  -9.0757762975897317e-04  -4.8180623002739415e-04  -2.1442480291750373e-04  -1.0800549654321005e-05  1.4753961766911431e-04  -1.9187264120335543e-03  -2.6839545104016711e-03  -1.6838307066014855e-03  -5.5809648978100319e-04  -2.8040860898458531e-04  -6.7329705937333646e-05  -1.7290024385132119e-04  2.3373527294578713e-03  8.9237358014549774e-03  1.4851709371716400e-02  1.9660945140410783e-02  2.3028202442766089e-02  2.3311075784796850e-02  1.9679697827080577e-02  1.2400793613742380e-02  2.4266934288530669e-03  -9.0698415246057255e-03  -2.0616937629732088e-02  -3.0178703036341785e-02  -3.5486769802032907e-02  -3.4318872362577496e-02  -2.5858644625582985e-02  -1.1919680302944864e-02  1.8587540712018201e-03  9.9278181533088237e-03  1.1937175282265717e-02  1.0145690954291733e-02  6.9697776074009480e-03  4.1872668540163726e-03  2.2824945621912843e-03  9.0873967074918936e-04  -1.9399428385171978e-04  -1.6344025666070565e-04  -7.3284387816430572e-03  -8.5816047712252326e-03  -4.5093026347846439e-03  4.8206842985739650e-05  2.5879015186840363e-03  6.7154430837543765e-03  1.8151871630158533e-02  3.6317979990422015e-02  5.6401762332432326e-02  7.0664011853751013e-02  7.5082873470973990e-02  7.0082842133026194e-02  5.7891411359397453e-02  4.0644543262343694e-02  1.9936518181628088e-02  -3.0803147777792167e-03  -2.7366961209653852e-02  -5.1460004971088200e-02  -7.3157460570311333e-02  -8.8897392707050646e-02  -9.4269393487764350e-02  -8.5455135091964743e-02  -6.2330910625075356e-02  -3.0785653303135024e-02  -2.0997657980526829e-03  1.4705858091787653e-02  2.1249450147434411e-02  1.9989076915725656e-02  1.4677536068022632e-02  9.3432288584620066e-03  4.8959147240471741e-03  3.5256790529087757e-05  -8.9612963521798158e-04  -1.4964000963798765e-02  -1.3691096230575161e-02  -3.2768626233976696e-03  6.5113099122157368e-03  1.7774081324333672e-02  4.0112695477037087e-02  7.3390683283191108e-02  1.0538357161595516e-01  1.2497778833048688e-01  1.2930168194336414e-01  1.2055638679122896e-01  1.0289601383926454e-01  7.9769405959911110e-02  5.3408994017085855e-02  2.4930159600287740e-02  -5.1811210604572073e-03  -3.6711606558610721e-02  -6.9142761997697713e-02  -1.0104083487840768e-01  -1.2935700428909355e-01  -1.4881146930177472e-01  -1.5258296079656644e-01  -1.3504052277677223e-01  -9.6800922422694918e-02  -4.8530064066485648e-02  -8.3470654721494487e-03  1.3105452599257616e-02  2.1985988640376718e-02  2.1918207250187529e-02  1.7055751247494574e-02  1.0509001125117018e-02  6.7837060603430528e-04  -2.5964177975057426e-03  -2.3507154543086679e-02  -1.3992815331788398e-02  6.2832902318639789e-03  2.7493529072840240e-02  6.0889084913100862e-02  1.0755149535827005e-01  1.5016035610419565e-01  1.7512854651456716e-01  1.8019328566420831e-01  1.6919099598179496e-01  1.4770530391910444e-01  1.2037485768538263e-01  9.0265081450091905e-02  5.8952840275685994e-02  2.6986127462650191e-02  -5.6745277844492585e-03  -3.9274420448654583e-02  -7.4234404361729484e-02  -1.1052646478989744e-01  -1.4702707898521311e-01  -1.8041091476193091e-01  -2.0397615516206216e-01  -2.0800176573163270e-01  -1.8348367007750840e-01  -1.2990847905095609e-01  -6.2713226456155804e-02  -1.0250396946437545e-02  1.3164032962028553e-02  2.2161170316061279e-02  2.1648180184732659e-02  1.5523962495256373e-02  1.2150854867953201e-03  -5.9838644688722320e-03  -2.9215076273419637e-02  -4.7656167280797218e-03  3.0094748535090966e-02  7.3624156660389115e-02  1.3170370120218536e-01  1.8580064667792820e-01  2.1802277359576450e-01  2.2510758571232919e-01  2.1234562808477386e-01  1.8731631906829119e-01  1.5634441945736530e-01  1.2345741250798885e-01  9.0594576254904732e-02  5.8252879480901715e-02  2.6235234104404620e-02  -5.9060573219921406e-03  -3.8640533863948931e-02  -7.2353966701086014e-02  -1.0746266065211657e-01  -1.4437207447072334e-01  -1.8287355380588491e-01  -2.2045560501083455e-01  -2.4967483471754881e-01  -2.5716288991141811e-01  -2.2821053872890920e-01  -1.5878129246097544e-01  -6.9730021973598622e-02  -5.4582357967827731e-03  1.6325949905962742e-02  2.3585031485675687e-02  1.8491440943307659e-02  1.5047739611845753e-03  -1.0921900921931014e-02  -2.6162206228184565e-02  1.8155688500817526e-02  7.3915558225582059e-02  1.4144151473720579e-01  2.0846784930844547e-01  2.5148145390940724e-01  2.6347693213148249e-01  2.5070207564799640e-01  2.2318410745582251e-01  1.8964018194905874e-01  1.5525570107445955e-01  1.2197373580074178e-01  8.9769844411830640e-02  5.8041585240870525e-02  2.6256340306579300e-02  -5.8791808691489146e-03  -3.8493755661358015e-02  -7.1534255548856562e-02  -1.0498398918161533e-01  -1.3905212007839252e-01  -1.7453264466259208e-01  -2.1263833138537855e-01  -2.5280936069358789e-01  -2.8765679615656109e-01  -2.9917191201859111e-01  -2.6454303802437157e-01  -1.7541731064222693e-01  -6.2450737621180676e-02  5.9889501985473216e-03  2.1476574834329146e-02  2.0565211014450500e-02  1.9865689847903961e-03  -1.4614560727223615e-02  -9.4035074409003060e-03  5.6947433873984925e-02  1.3441639373786199e-01  2.1431850694255716e-01  2.7303771588231679e-01  2.9515272393303077e-01  2.8586850411908848e-01  2.5776914815553370e-01  2.2277461888804873e-01  1.8787589019056100e-01  1.5494170410840935e-01  1.2323986281797597e-01  9.1724171695478890e-02  5.9891300589241692e-02  2.7615635957342458e-02  -5.0891226151087293e-03  -3.8190493303994245e-02  -7.1625957187255174e-02  -1.0520469826462289e-01  -1.3859679033590425e-01  -1.7160119459255233e-01  -2.0500730529432454e-01  -2.4140135345319744e-01  -2.8283472070397153e-01  -3.2219202938270708e-01  -3.3488212568542247e-01  -2.8761027288415714e-01  -1.7039147377406116e-01  -3.5816956004617352e-02  1.7587993621625168e-02  2.2944714390893586e-02  2.0979247802830423e-03  -1.2580928648279577e-02  2.2243565798199527e-02  1.0870949846561687e-01  2.0064820597242775e-01  2.7832603634388409e-01  3.1820587308325660e-01  3.1805992981151437e-01  2.9237425076262491e-01  2.5680584366732245e-01  2.2156134667010211e-01  1.8902399547740270e-01  1.5775518034481961e-01  1.2629490765037821e-01  9.4280601015590257e-02  6.1848184828772551e-02  2.9135450563243095e-02  -3.8339747360564757e-03  -3.7090256714567761e-02  -7.0680148765765213e-02  -1.0458649918783691e-01  -1.3862690266957550e-01  -1.7229213942537025e-01  -2.0484944320009141e-01  -2.3663455808281314e-01  -2.7137158355174146e-01  -3.1400440529716955e-01  -3.5646356004460245e-01  -3.6340689689187122e-01  -2.8948861560976558e-01  -1.3338441093291070e-01  3.6053218307111473e-03  2.2093092805494537e-02  4.0651487020595279e-03  -2.7233159930163606e-03  6.6079405058118226e-02  1.6643829348154790e-01  2.6261756455362378e-01  3.2729437823255014e-01  3.4527895759650024e-01  3.2691988845688952e-01  2.9223580765766388e-01  2.5610969625248547e-01  2.2352432285461274e-01  1.9250432234359621e-01  1.6103508809590214e-01  1.2878518332665292e-01  9.6179479218355318e-02  6.3448339559214639e-02  3.0616308436718916e-02  -2.3834464269952009e-03  -3.5608749407366941e-02  -6.9093859245194650e-02  -1.0287109062567090e-01  -1.3698164791623368e-01  -1.7136525686119866e-01  -2.0549166086246309e-01  -2.3809175617936615e-01  -2.6886454413633587e-01  -3.0294310517879053e-01  -3.4821472800879988e-01  -3.9124809147823297e-01  -3.7839692891047322e-01  -2.5578738489944958e-01  -5.8403784756631570e-02  2.3260120993652347e-02  9.5610735598650985e-03  1.3341007461177041e-02  1.1677433912703367e-01  2.2310090282614023e-01  3.1487112437801046e-01  3.6138620562839924e-01  3.5957979270465246e-01  3.2924725366065694e-01  2.9202064644457038e-01  2.5827318321075043e-01  2.2732601407268338e-01  1.9593605027604175e-01  1.6354761695704373e-01  1.3078235256355453e-01  9.8030034553991854e-02  6.5256043930221080e-02  3.2370864811275227e-02  -6.9478767390904422e-04  -3.3963583580696052e-02  -6.7442732013552248e-02  -1.0112340975832240e-01  -1.3502368791373615e-01  -1.6925064532869824e-01  -2.0393545759774992e-01  -2.3858193944139833e-01  -2.7126735693889487e-01  -3.0126393732376128e-01  -3.3661727192110624e-01  -3.8700478934935451e-01  -4.2257706393540834e-01  -3.6254266289075338e-01  -1.6654890055267912e-01  1.9413351075065668e-02  6.5038925551994418e-03  3.1647610143075447e-02  1.6842733331801035e-01  2.7388571003260859e-01  3.5608673876838209e-01  3.8391403054853934e-01  3.6687391166854971e-01  3.3032399071480290e-01  2.9400474915523983e-01  2.6221409578207500e-01  2.3111274398866560e-01  1.9870781541933810e-01  1.6578191078841731e-01  1.3294178113795072e-01  1.0018190855969815e-01  6.7342684811953379e-02  3.4366476439359597e-02  1.2246332424075842e-03  -3.2099192807534829e-02  -6.5624995647834639e-02  -9.9354313869515279e-02  -1.3326478818664084e-01  -1.6734928866910856e-01  -2.0177815236744626e-01  -2.3690595353056135e-01  -2.7212984128047218e-01  -3.0446496996841099e-01  -3.3390225898925069e-01  -3.7456147627059866e-01  -4.3058282583059748e-01  -4.3425722275753859e-01  -2.8175008209430008e-01  -1.7492844036586075e-02  4.6077737337183698e-03  4.7725608475888942e-02  2.1612631244992633e-01  3.1645603182411158e-01  3.8730202036922401e-01  3.9879294280816829e-01  3.7136044602232848e-01  3.3242442965244484e-01  2.9773205084662890e-01  2.6645895841458805e-01  2.3437507940271948e-01  2.0124006562646293e-01  1.6818248007691081e-01  1.3533304959192838e-01  1.0248248093227665e-01  6.9537526074260683e-02  3.6491740720134197e-02  3.3193727797220180e-03  -3.0013765071734068e-02  -6.3546113093681550e-02  -9.7309224217594331e-02  -1.3131860229914000e-01  -1.6554622958986276e-01  -1.9995862643470610e-01  -2.3482116617238211e-01  -2.7074486938243614e-01  -3.0647062217521093e-01  -3.3744183811558581e-01  -3.6838594004787417e-01  -4.2154312339057276e-01  -4.6934104839813767e-01  -3.8304348386288478e-01  -9.6671100604741780e-02  2.9355922068625598e-02  5.7998032957011121e-02  2.5647793493312937e-01  3.5023273528131144e-01  4.1034562853204454e-01  4.0914290527908675e-01  3.7523770393298389e-01  3.3576612662110200e-01  3.0211326726526000e-01  2.7036345842006293e-01  2.3730926154716891e-01  2.0382212575799602e-01  1.7072163694900022e-01  1.3777265909396988e-01  1.0479970853769338e-01  7.1789177218099895e-02  3.8729075211470503e-02  5.5720990271422221e-03  -2.7731634387979615e-02  -6.1232596611791389e-02  -9.4979842046282195e-02  -1.2902308207524363e-01  -1.6339816256375583e-01  -1.9807619941460472e-01  -2.3301399740326986e-01  -2.6871812753933616e-01  -3.0594758045288811e-01  -3.4133561654554717e-01  -3.7006965710674167e-01  -4.1129646263805109e-01  -4.7907111612354358e-01  -4.6028652469130460e-01  -1.9784260232731118e-01  6.5657363697039881e-02  6.0408735971280221e-02  2.8739039916110826e-01  3.7557887064298562e-01  4.2690957586140249e-01  4.1691306438268777e-01  3.7920197857161148e-01  3.3976161805485272e-01  3.0638938556484085e-01  2.7383806104915753e-01  2.4009363966372796e-01  2.0643027664322808e-01  1.7323757564175915e-01  1.4015708791697756e-01  1.0710815314183839e-01  7.4093172809103214e-02  4.1069892045107581e-02  7.9747613420993683e-03  -2.5253578282718549e-02  -5.8679146442064803e-02  -9.2367821450946491e-02  -1.2638963304714557e-01  -1.6081740058234170e-01  -1.9570634141464946e-01  -2.3101367961639757e-01  -2.6677633843920900e-01  -3.0406623994967186e-01  -3.4275661527280848e-01  -3.7521012844743745e-01  -4.0671211048974543e-01  -4.7532399720195212e-01  -5.1248258358546506e-01  -2.9707167849356503e-01  8.8550824488086308e-02  5.4286145633321251e-02  3.0776353952811286e-01  3.9310946852362472e-01  4.3820724110059317e-01  4.2304746108415758e-01  3.8321074031164948e-01  3.4378822857938268e-01  3.1020243959984711e-01  2.7691813396161385e-01  2.4272640173816667e-01  2.0892501934937177e-01  1.7561209755619916e-01  1.4243796415750129e-01  1.0937702996880862e-01  7.6413857180619341e-02  4.3483047285257467e-02  1.0510538772581419e-02  -2.2578348478721349e-02  -5.5863267181720626e-02  -8.9428507418561495e-02  -1.2336470430514807e-01  -1.5777302085335473e-01  -1.9275252588575428e-01  -2.2836092686518403e-01  -2.6453557489998064e-01  -3.0174115312004457e-01  -3.4169646182042762e-01  -3.7953074008432314e-01  -4.0772068415570151e-01  -4.6648332147887822e-01  -5.4301741995850650e-01  -3.8424752989342292e-01  9.2435809781289596e-02  4.1022388535958153e-02  3.1646114861300184e-01  4.0352999342170431e-01  4.4487606956159098e-01  4.2786440231377604e-01  3.8698305752979567e-01  3.4740661979181109e-01  3.1339066722863296e-01  2.7958862714220512e-01  2.4511382521053138e-01  2.1118431637139745e-01  1.7777459138061324e-01  1.4457103952871964e-01  1.1156026621559109e-01  7.8709024861193466e-02  4.5937504413570078e-02  1.3161143562699359e-02  -1.9707216063191261e-02  -5.2765450070384919e-02  -8.6119335006349662e-02  -1.1987845853665302e-01  -1.5416939871486754e-01  -1.8913489205346290e-01  -2.2488154481839737e-01  -2.6145232896306370e-01  -2.9891364146783189e-01  -3.3894763812187856e-01  -3.8096658462361482e-01  -4.1131297206825296e-01  -4.5694741933096988e-01  -5.5662518853409049e-01  -4.5647953543075231e-01  7.9356224785814986e-02  2.3168659001755375e-02  3.1253249114478715e-01  4.0724399937766886e-01  4.4708969123264841e-01  4.3133336664338812e-01  3.9031213870304071e-01  3.5040152619258202e-01  3.1588108977393703e-01  2.8179152235219557e-01  2.4715309442502850e-01  2.1310958069968150e-01  1.7965068420630134e-01  1.4648622270337255e-01  1.1358983128393550e-01  8.0920248024794972e-02  4.8388280660268665e-02  1.5899817478968764e-02  -1.6646971818436520e-02  -4.9371946741860850e-02  -8.2400258678459681e-02  -1.1586559890613540e-01  -1.4991248457284867e-01  -1.8472659338593139e-01  -2.2045978492986892e-01  -2.5720516507648883e-01  -2.9506118117565067e-01  -3.3495363341599049e-01  -3.7908426903857367e-01  -4.1448031460770218e-01  -4.4825485064082243e-01  -5.5787918725217223e-01  -5.1440596896093160e-01  5.4680589602325122e-02  3.4211806148429637e-03  2.9580409100055749e-01  4.0382978348649790e-01  4.4490460361353446e-01  4.3309934191242122e-01  3.9311974024738711e-01  3.5269726069418939e-01  3.1761035715682134e-01  2.8343142894042600e-01  2.4876128063731398e-01  2.1462884917830438e-01  1.8117122897025334e-01  1.4811680183500667e-01  1.1540546867523965e-01  8.2996567871666163e-02  5.0797578362348932e-02  1.8702016812785108e-02  -1.3411391952717308e-02  -4.5678649723851078e-02  -7.8241547772487000e-02  -1.1126531332974068e-01  -1.4491323837159090e-01  -1.7940377075302319e-01  -2.1494339747166563e-01  -2.5163260862564724e-01  -2.8967481113474131e-01  -3.2963638763732478e-01  -3.7416890663952812e-01  -4.1512363327901980e-01  -4.4031311696912828e-01  -5.5021857704675903e-01  -5.5957627217479433e-01  2.2829266362748540e-02  -1.4569521093242327e-02  2.6635199368288898e-01  3.9218654934120467e-01  4.3823849181660207e-01  4.3258160960448100e-01  3.9538684713718197e-01  3.5444090868192107e-01  3.1861283211243835e-01  2.8442225180871389e-01  2.4985956011165650e-01  2.1567393619550201e-01  1.8224277837034222e-01  1.4936097303418708e-01  1.1691462024884521e-01  8.4855856936376220e-02  5.3094556549936472e-02  2.1511011191663033e-02  -1.0034308640686928e-02  -4.1688269267597826e-02  -7.3624718562805072e-02  -1.0603193661074305e-01  -1.3909020302286043e-01  -1.7306301752367537e-01  -2.0817245066979692e-01  -2.4458228005854746e-01  -2.8244517737512720e-01  -3.2259654332706067e-01  -3.6660541835020416e-01  -4.1207566075095936e-01  -4.3224522969842810e-01  -5.3592020943656349e-01  -5.9359149223985674e-01  -1.3366201484194941e-02  -2.6663165842684685e-02  2.2485223414127681e-01  3.7070197419286055e-01  4.2664532079058765e-01  4.2911046094510269e-01  3.9685701366810294e-01  3.5586162051394760e-01  3.1896635607361340e-01  2.8466365287249173e-01  2.5033784044080815e-01  2.1619179287297000e-01  1.8279950083229535e-01  1.5013200304933763e-01  1.1803613102747880e-01  8.6430217154353908e-02  5.5222911665849327e-02  2.4285366416939590e-02  -6.5356113642051307e-03  -3.7413646623313500e-02  -6.8547270930682719e-02  -1.0012975738415472e-01  -1.3238140222324854e-01  -1.6561184057870537e-01  -2.0002031658960745e-01  -2.3587157747025650e-01  -2.7320935594900941e-01  -3.1336527279095300e-01  -3.5663991872264350e-01  -4.0473590081382721e-01  -4.2292235864442373e-01  -5.1620681708801031e-01  -6.1778911355996480e-01  -5.2765306009082212e-02  -2.9682843492868493e-02  1.7344467545961334e-01  3.3764338148426404e-01  4.0907407094456189e-01  4.2194305925725645e-01  3.9702320929640528e-01  3.5727572544223596e-01  3.1900785167835977e-01  2.8414860466152542e-01  2.5004316603015181e-01  2.1605965087609988e-01  1.8273843069315221e-01  1.5029186772494060e-01  1.1861657037949587e-01  8.7579805406621553e-02  5.7064829135208626e-02  2.6929119116552026e-02  -2.9958788103997508e-03  -3.2910542648229596e-02  -6.3012233087838557e-02  -9.3538503394331826e-02  -1.2475418600794927e-01  -1.5697232965728397e-01  -1.9038001238013394e-01  -2.2532619153383696e-01  -2.6184268882523998e-01  -3.0160043883608467e-01  -3.4423274510427521e-01  -3.9289622115004263e-01  -4.1112196616178753e-01  -4.9158841408703985e-01  -6.3315426422948684e-01  -9.5431959856134771e-02  -2.3675748134463281e-02  1.1687224678509583e-01  2.9194482876523253e-01  3.8368006966499596e-01  4.1003445235617370e-01  3.9476723527752855e-01  3.5848200446495948e-01  3.1909252440899605e-01  2.8298526168206861e-01  2.4878815558641987e-01  2.1508108856951039e-01  1.8195800562757061e-01  1.4977330976106107e-01  1.1856629540513203e-01  8.8208003727727233e-02  5.8535916575277194e-02  2.9378524595526340e-02  5.4392761231053684e-04  -2.8181490973962657e-02  -5.7031020133308886e-02  -8.6281970313823619e-02  -1.1619415546740047e-01  -1.4708106005596205e-01  -1.7915505949142599e-01  -2.1281368873106291e-01  -2.4820580731458072e-01  -2.8716020507461021e-01  -3.2905977477245696e-01  -3.7659406796262657e-01  -3.9549703276375958e-01  -4.6217546986201746e-01  -6.4028238240632351e-01  -1.4228158295627599e-01  -1.3880038040777747e-02  6.3538700087769490e-02  2.3421961120133375e-01  3.4776466361840541e-01  3.9177281773681705e-01  3.8873092995658215e-01  3.5873155828451087e-01  3.1957304474364800e-01  2.8163333751116010e-01  2.4654052404599125e-01  2.1290226280594618e-01  1.8011918458413959e-01  1.4833208255341032e-01  1.1768773588906621e-01  8.8117398480054218e-02  5.9449648182855738e-02  3.1466686499975347e-02  3.9458710937161825e-03  -2.3364581832602756e-02  -5.0719177320879501e-02  -7.8397722675837098e-02  -1.0668080701760677e-01  -1.3588827866456984e-01  -1.6627011725888019e-01  -1.9824312926373436e-01  -2.3222910472652489e-01  -2.6994199358494636e-01  -3.1080937154268778e-01  -3.5564222402698886e-01  -3.7482847996472507e-01  -4.2779347575406940e-01  -6.3944557960583448e-01  -1.9466399003831894e-01  -8.0280121723673610e-03  2.3178456919584572e-02  1.6822267850855516e-01  2.9863187132460395e-01  3.6425304391579993e-01  3.7662615744627342e-01  3.5597667127475752e-01  3.1966027240167699e-01  2.8041138610597810e-01  2.4358569726113408e-01  2.0937980896837177e-01  1.7686647466467170e-01  1.4568990718270897e-01  1.1582402808305685e-01  8.7233203593180861e-02  5.9749962809879195e-02  3.3150601845173516e-02  7.1635209786259195e-03  -1.8473511022203799e-02  -4.4055067056154376e-02  -6.9861744549523819e-02  -9.6211668080635554e-02  -