<?xml version="1.0"?>
<VTKFile type="UnstructuredGrid"  version="0.1"  >
<UnstructuredGrid>
<Piece  NumberOfPoints="1089" NumberOfCells="1024">
<Points>
<DataArray  type="Float64"  NumberOfComponents="3"  format="ascii">0 0 0  0.03125 0 0  0.0625 0 0  0.09375 0 0  0.125 0 0  0.15625 0 0  0.1875 0 0  0.21875 0 0  0.25 0 0  0.28125 0 0  0.3125 0 0  0.34375 0 0  0.375 0 0  0.40625 0 0  0.4375 0 0  0.46875 0 0  0.5 0 0  0.53125 0 0  0.5625 0 0  0.59375 0 0  0.625 0 0  0.65625 0 0  0.6875 0 0  0.71875 0 0  0.75 0 0  0.78125 0 0  0.8125 0 0  0.84375 0 0  0.875 0 0  0.90625 0 0  0.9375 0 0  0.96875 0 0  1 0 0  0 0.03125 0  0.03125 0.03125 0  0.0625 0.03125 0  0.09375 0.03125 0  0.125 0.03125 0  0.15625 0.03125 0  0.1875 0.03125 0  0.21875 0.03125 0  0.25 0.03125 0  0.28125 0.03125 0  0.3125 0.03125 0  0.34375 0.03125 0  0.375 0.03125 0  0.40625 0.03125 0  0.4375 0.03125 0  0.46875 0.03125 0  0.5 0.03125 0  0.53125 0.03125 0  0.5625 0.03125 0  0.59375 0.03125 0  0.625 0.03125 0  0.65625 0.03125 0  0.6875 0.03125 0  0.71875 0.03125 0  0.75 0.03125 0  0.78125 0.03125 0  0.8125 0.03125 0  0.84375 0.03125 0  0.875 0.03125 0  0.90625 0.03125 0  0.9375 0.03125 0  0.96875 0.03125 0  1 0.03125 0  0 0.0625 0  0.03125 0.0625 0  0.0625 0.0625 0  0.09375 0.0625 0  0.125 0.0625 0  0.15625 0.0625 0  0.1875 0.0625 0  0.21875 0.0625 0  0.25 0.0625 0  0.28125 0.0625 0  0.3125 0.0625 0  0.34375 0.0625 0  0.375 0.0625 0  0.40625 0.0625 0  0.4375 0.0625 0  0.46875 0.0625 0  0.5 0.0625 0  0.53125 0.0625 0  0.5625 0.0625 0  0.59375 0.0625 0  0.625 0.0625 0  0.65625 0.0625 0  0.6875 0.0625 0  0.71875 0.0625 0  0.75 0.0625 0  0.78125 0.0625 0  0.8125 0.0625 0  0.84375 0.0625 0  0.875 0.0625 0  0.90625 0.0625 0  0.9375 0.0625 0  0.96875 0.0625 0  1 0.0625 0  0 0.09375 0  0.03125 0.09375 0  0.0625 0.09375 0  0.09375 0.09375 0  0.125 0.09375 0  0.15625 0.09375 0  0.1875 0.09375 0  0.21875 0.09375 0  0.25 0.09375 0  0.28125 0.09375 0  0.3125 0.09375 0  0.34375 0.09375 0  0.375 0.09375 0  0.40625 0.09375 0  0.4375 0.09375 0  0.46875 0.09375 0  0.5 0.09375 0  0.53125 0.09375 0  0.5625 0.09375 0  0.59375 0.09375 0  0.625 0.09375 0  0.65625 0.09375 0  0.6875 0.09375 0  0.71875 0.09375 0  0.75 0.09375 0  0.78125 0.09375 0  0.8125 0.09375 0  0.84375 0.09375 0  0.875 0.09375 0  0.90625 0.09375 0  0.9375 0.09375 0  0.96875 0.09375 0  1 0.09375 0  0 0.125 0  0.03125 0.125 0  0.0625 0.125 0  0.09375 0.125 0  0.125 0.125 0  0.15625 0.125 0  0.1875 0.125 0  0.21875 0.125 0  0.25 0.125 0  0.28125 0.125 0  0.3125 0.125 0  0.34375 0.125 0  0.375 0.125 0  0.40625 0.125 0  0.4375 0.125 0  0.46875 0.125 0  0.5 0.125 0  0.53125 0.125 0  0.5625 0.125 0  0.59375 0.125 0  0.625 0.125 0  0.65625 0.125 0  0.6875 0.125 0  0.71875 0.125 0  0.75 0.125 0  0.78125 0.125 0  0.8125 0.125 0  0.84375 0.125 0  0.875 0.125 0  0.90625 0.125 0  0.9375 0.125 0  0.96875 0.125 0  1 0.125 0  0 0.15625 0  0.03125 0.15625 0  0.0625 0.15625 0  0.09375 0.15625 0  0.125 0.15625 0  0.15625 0.15625 0  0.1875 0.15625 0  0.21875 0.15625 0  0.25 0.15625 0  0.28125 0.15625 0  0.3125 0.15625 0  0.34375 0.15625 0  0.375 0.15625 0  0.40625 0.15625 0  0.4375 0.15625 0  0.46875 0.15625 0  0.5 0.15625 0  0.53125 0.15625 0  0.5625 0.15625 0  0.59375 0.15625 0  0.625 0.15625 0  0.65625 0.15625 0  0.6875 0.15625 0  0.71875 0.15625 0  0.75 0.15625 0  0.78125 0.15625 0  0.8125 0.15625 0  0.84375 0.15625 0  0.875 0.15625 0  0.90625 0.15625 0  0.9375 0.15625 0  0.96875 0.15625 0  1 0.15625 0  0 0.1875 0  0.03125 0.1875 0  0.0625 0.1875 0  0.09375 0.1875 0  0.125 0.1875 0  0.15625 0.1875 0  0.1875 0.1875 0  0.21875 0.1875 0  0.25 0.1875 0  0.28125 0.1875 0  0.3125 0.1875 0  0.34375 0.1875 0  0.375 0.1875 0  0.40625 0.1875 0  0.4375 0.1875 0  0.46875 0.1875 0  0.5 0.1875 0  0.53125 0.1875 0  0.5625 0.1875 0  0.59375 0.1875 0  0.625 0.1875 0  0.65625 0.1875 0  0.6875 0.1875 0  0.71875 0.1875 0  0.75 0.1875 0  0.78125 0.1875 0  0.8125 0.1875 0  0.84375 0.1875 0  0.875 0.1875 0  0.90625 0.1875 0  0.9375 0.1875 0  0.96875 0.1875 0  1 0.1875 0  0 0.21875 0  0.03125 0.21875 0  0.0625 0.21875 0  0.09375 0.21875 0  0.125 0.21875 0  0.15625 0.21875 0  0.1875 0.21875 0  0.21875 0.21875 0  0.25 0.21875 0  0.28125 0.21875 0  0.3125 0.21875 0  0.34375 0.21875 0  0.375 0.21875 0  0.40625 0.21875 0  0.4375 0.21875 0  0.46875 0.21875 0  0.5 0.21875 0  0.53125 0.21875 0  0.5625 0.21875 0  0.59375 0.21875 0  0.625 0.21875 0  0.65625 0.21875 0  0.6875 0.21875 0  0.71875 0.21875 0  0.75 0.21875 0  0.78125 0.21875 0  0.8125 0.21875 0  0.84375 0.21875 0  0.875 0.21875 0  0.90625 0.21875 0  0.9375 0.21875 0  0.96875 0.21875 0  1 0.21875 0  0 0.25 0  0.03125 0.25 0  0.0625 0.25 0  0.09375 0.25 0  0.125 0.25 0  0.15625 0.25 0  0.1875 0.25 0  0.21875 0.25 0  0.25 0.25 0  0.28125 0.25 0  0.3125 0.25 0  0.34375 0.25 0  0.375 0.25 0  0.40625 0.25 0  0.4375 0.25 0  0.46875 0.25 0  0.5 0.25 0  0.53125 0.25 0  0.5625 0.25 0  0.59375 0.25 0  0.625 0.25 0  0.65625 0.25 0  0.6875 0.25 0  0.71875 0.25 0  0.75 0.25 0  0.78125 0.25 0  0.8125 0.25 0  0.84375 0.25 0  0.875 0.25 0  0.90625 0.25 0  0.9375 0.25 0  0.96875 0.25 0  1 0.25 0  0 0.28125 0  0.03125 0.28125 0  0.0625 0.28125 0  0.09375 0.28125 0  0.125 0.28125 0  0.15625 0.28125 0  0.1875 0.28125 0  0.21875 0.28125 0  0.25 0.28125 0  0.28125 0.28125 0  0.3125 0.28125 0  0.34375 0.28125 0  0.375 0.28125 0  0.40625 0.28125 0  0.4375 0.28125 0  0.46875 0.28125 0  0.5 0.28125 0  0.53125 0.28125 0  0.5625 0.28125 0  0.59375 0.28125 0  0.625 0.28125 0  0.65625 0.28125 0  0.6875 0.28125 0  0.71875 0.28125 0  0.75 0.28125 0  0.78125 0.28125 0  0.8125 0.28125 0  0.84375 0.28125 0  0.875 0.28125 0  0.90625 0.28125 0  0.9375 0.28125 0  0.96875 0.28125 0  1 0.28125 0  0 0.3125 0  0.03125 0.3125 0  0.0625 0.3125 0  0.09375 0.3125 0  0.125 0.3125 0  0.15625 0.3125 0  0.1875 0.3125 0  0.21875 0.3125 0  0.25 0.3125 0  0.28125 0.3125 0  0.3125 0.3125 0  0.34375 0.3125 0  0.375 0.3125 0  0.40625 0.3125 0  0.4375 0.3125 0  0.46875 0.3125 0  0.5 0.3125 0  0.53125 0.3125 0  0.5625 0.3125 0  0.59375 0.3125 0  0.625 0.3125 0  0.65625 0.3125 0  0.6875 0.3125 0  0.71875 0.3125 0  0.75 0.3125 0  0.78125 0.3125 0  0.8125 0.3125 0  0.84375 0.3125 0  0.875 0.3125 0  0.90625 0.3125 0  0.9375 0.3125 0  0.96875 0.3125 0  1 0.3125 0  0 0.34375 0  0.03125 0.34375 0  0.0625 0.34375 0  0.09375 0.34375 0  0.125 0.34375 0  0.15625 0.34375 0  0.1875 0.34375 0  0.21875 0.34375 0  0.25 0.34375 0  0.28125 0.34375 0  0.3125 0.34375 0  0.34375 0.34375 0  0.375 0.34375 0  0.40625 0.34375 0  0.4375 0.34375 0  0.46875 0.34375 0  0.5 0.34375 0  0.53125 0.34375 0  0.5625 0.34375 0  0.59375 0.34375 0  0.625 0.34375 0  0.65625 0.34375 0  0.6875 0.34375 0  0.71875 0.34375 0  0.75 0.34375 0  0.78125 0.34375 0  0.8125 0.34375 0  0.84375 0.34375 0  0.875 0.34375 0  0.90625 0.34375 0  0.9375 0.34375 0  0.96875 0.34375 0  1 0.34375 0  0 0.375 0  0.03125 0.375 0  0.0625 0.375 0  0.09375 0.375 0  0.125 0.375 0  0.15625 0.375 0  0.1875 0.375 0  0.21875 0.375 0  0.25 0.375 0  0.28125 0.375 0  0.3125 0.375 0  0.34375 0.375 0  0.375 0.375 0  0.40625 0.375 0  0.4375 0.375 0  0.46875 0.375 0  0.5 0.375 0  0.53125 0.375 0  0.5625 0.375 0  0.59375 0.375 0  0.625 0.375 0  0.65625 0.375 0  0.6875 0.375 0  0.71875 0.375 0  0.75 0.375 0  0.78125 0.375 0  0.8125 0.375 0  0.84375 0.375 0  0.875 0.375 0  0.90625 0.375 0  0.9375 0.375 0  0.96875 0.375 0  1 0.375 0  0 0.40625 0  0.03125 0.40625 0  0.0625 0.40625 0  0.09375 0.40625 0  0.125 0.40625 0  0.15625 0.40625 0  0.1875 0.40625 0  0.21875 0.40625 0  0.25 0.40625 0  0.28125 0.40625 0  0.3125 0.40625 0  0.34375 0.40625 0  0.375 0.40625 0  0.40625 0.40625 0  0.4375 0.40625 0  0.46875 0.40625 0  0.5 0.40625 0  0.53125 0.40625 0  0.5625 0.40625 0  0.59375 0.40625 0  0.625 0.40625 0  0.65625 0.40625 0  0.6875 0.40625 0  0.71875 0.40625 0  0.75 0.40625 0  0.78125 0.40625 0  0.8125 0.40625 0  0.84375 0.40625 0  0.875 0.40625 0  0.90625 0.40625 0  0.9375 0.40625 0  0.96875 0.40625 0  1 0.40625 0  0 0.4375 0  0.03125 0.4375 0  0.0625 0.4375 0  0.09375 0.4375 0  0.125 0.4375 0  0.15625 0.4375 0  0.1875 0.4375 0  0.21875 0.4375 0  0.25 0.4375 0  0.28125 0.4375 0  0.3125 0.4375 0  0.34375 0.4375 0  0.375 0.4375 0  0.40625 0.4375 0  0.4375 0.4375 0  0.46875 0.4375 0  0.5 0.4375 0  0.53125 0.4375 0  0.5625 0.4375 0  0.59375 0.4375 0  0.625 0.4375 0  0.65625 0.4375 0  0.6875 0.4375 0  0.71875 0.4375 0  0.75 0.4375 0  0.78125 0.4375 0  0.8125 0.4375 0  0.84375 0.4375 0  0.875 0.4375 0  0.90625 0.4375 0  0.9375 0.4375 0  0.96875 0.4375 0  1 0.4375 0  0 0.46875 0  0.03125 0.46875 0  0.0625 0.46875 0  0.09375 0.46875 0  0.125 0.46875 0  0.15625 0.46875 0  0.1875 0.46875 0  0.21875 0.46875 0  0.25 0.46875 0  0.28125 0.46875 0  0.3125 0.46875 0  0.34375 0.46875 0  0.375 0.46875 0  0.40625 0.46875 0  0.4375 0.46875 0  0.46875 0.46875 0  0.5 0.46875 0  0.53125 0.46875 0  0.5625 0.46875 0  0.59375 0.46875 0  0.625 0.46875 0  0.65625 0.46875 0  0.6875 0.46875 0  0.71875 0.46875 0  0.75 0.46875 0  0.78125 0.46875 0  0.8125 0.46875 0  0.84375 0.46875 0  0.875 0.46875 0  0.90625 0.46875 0  0.9375 0.46875 0  0.96875 0.46875 0  1 0.46875 0  0 0.5 0  0.03125 0.5 0  0.0625 0.5 0  0.09375 0.5 0  0.125 0.5 0  0.15625 0.5 0  0.1875 0.5 0  0.21875 0.5 0  0.25 0.5 0  0.28125 0.5 0  0.3125 0.5 0  0.34375 0.5 0  0.375 0.5 0  0.40625 0.5 0  0.4375 0.5 0  0.46875 0.5 0  0.5 0.5 0  0.53125 0.5 0  0.5625 0.5 0  0.59375 0.5 0  0.625 0.5 0  0.65625 0.5 0  0.6875 0.5 0  0.71875 0.5 0  0.75 0.5 0  0.78125 0.5 0  0.8125 0.5 0  0.84375 0.5 0  0.875 0.5 0  0.90625 0.5 0  0.9375 0.5 0  0.96875 0.5 0  1 0.5 0  0 0.53125 0  0.03125 0.53125 0  0.0625 0.53125 0  0.09375 0.53125 0  0.125 0.53125 0  0.15625 0.53125 0  0.1875 0.53125 0  0.21875 0.53125 0  0.25 0.53125 0  0.28125 0.53125 0  0.3125 0.53125 0  0.34375 0.53125 0  0.375 0.53125 0  0.40625 0.53125 0  0.4375 0.53125 0  0.46875 0.53125 0  0.5 0.53125 0  0.53125 0.53125 0  0.5625 0.53125 0  0.59375 0.53125 0  0.625 0.53125 0  0.65625 0.53125 0  0.6875 0.53125 0  0.71875 0.53125 0  0.75 0.53125 0  0.78125 0.531
[...]
<PointData  Scalars="u_sol"> 
<DataArray  type="Float64"  Name="u_sol"  format="ascii">-4.1392217586221568e-05  -3.7783122890017526e-05  6.7230816781399755e-04  1.2915680964138698e-03  1.5489655715646366e-03  1.8102754266256988e-03  2.4935088650486111e-03  3.6384780930414952e-03  5.2486819567310302e-03  7.8872292069980584e-03  1.1313307070333355e-02  1.3524298068778624e-02  1.2433875688953456e-02  7.2659856150306575e-03  -1.2731127139260347e-03  -1.1029497564861580e-02  -1.8719032127822853e-02  -2.1773611838365885e-02  -1.9472901113242284e-02  -1.2039677188608003e-02  -9.5244040322733860e-04  1.0983383799059852e-02  2.0586674654496460e-02  2.5255318700938528e-02  2.3896327181548268e-02  1.7242008123242936e-02  9.3908559445046533e-03  3.9943029863200282e-03  1.1268756778169391e-03  1.8824865775399826e-05  -2.7352069903572028e-04  -3.1038142740960617e-04  1.6143692566164300e-05  -4.8785909520409986e-04  2.4258045876135890e-03  8.4963221804764608e-03  1.3377075906939690e-02  1.5096663264726806e-02  1.4594555616990105e-02  1.2662591147328990e-02  8.1208777856077354e-03  -1.9120264195348546e-03  -2.1826899015608879e-02  -5.4500272121764670e-02  -9.7832666779471320e-02  -1.4565338357288130e-01  -1.9053842304643853e-01  -2.2609213603504330e-01  -2.4813308005914259e-01  -2.5487870594690504e-01  -2.4581352438060095e-01  -2.2084586265371567e-01  -1.8127777297444295e-01  -1.3052614778416155e-01  -7.4521306437552268e-02  -2.1172555184394669e-02  2.2075345097828786e-02  5.0804242278297052e-02  6.4016551020176532e-02  6.1836941471495037e-02  4.8501722852833357e-02  3.2061780834123602e-02  1.7986539665092789e-02  8.0542502068672254e-03  1.9127490584478618e-03  -3.7978354669970018e-04  -7.7364760012578178e-04  3.9123086370501147e-03  1.1479619697353493e-02  1.5249543743208100e-02  1.3720057403485739e-02  7.3139238164740099e-03  -5.9407003493368521e-03  -3.1765564640916379e-02  -7.5485217699373594e-02  -1.3526374117691342e-01  -2.0160559484945226e-01  -2.6356157392486917e-01  -3.1397371196268942e-01  -3.5060199584144680e-01  -3.7440558009356123e-01  -3.8727266509936215e-01  -3.9033588378979578e-01  -3.8343546995945987e-01  -3.6564343576828046e-01  -3.3543254555114116e-01  -2.9121960377690659e-01  -2.3322615358995039e-01  -1.6592992986089108e-01  -9.8871485428985398e-02  -4.2719731333744501e-02  -2.5418103271102176e-03  2.3346643059615441e-02  3.5208315270708987e-02  3.3469711481967632e-02  2.3981663824913495e-02  1.3001915703264101e-02  3.8557167334468479e-03  -7.0897610044260264e-04  -9.5537823989758053e-04  4.9183283696002614e-03  1.1275603707451343e-02  9.4148912930243790e-03  -5.4405960665626640e-04  -2.0571562828155730e-02  -5.8403432260031279e-02  -1.1814114421905610e-01  -1.9211290606050316e-01  -2.6556636602663430e-01  -3.2694789074231656e-01  -3.7259404793827250e-01  -4.0443565821318511e-01  -4.2593425835160825e-01  -4.3976405619294839e-01  -4.4750111936104869e-01  -4.5024544565769103e-01  -4.4891836467347918e-01  -4.4340129092929398e-01  -4.3182577241793502e-01  -4.1023179258358278e-01  -3.7267520767009465e-01  -3.1396905133748693e-01  -2.3560966800620950e-01  -1.5060168738126656e-01  -7.8653542496498779e-02  -3.1027656127996274e-02  -2.7863084962286649e-03  1.2211406503463709e-02  1.5265427216267646e-02  1.0603834340358444e-02  3.4636260848513968e-03  -6.5799295028540618e-04  -8.9123327802459874e-04  4.9284231901616004e-03  5.8604092236082496e-03  -5.8147973343163776e-03  -2.9628045908689664e-02  -7.3076259784388573e-02  -1.3994702751776988e-01  -2.1880692549310976e-01  -2.9140213146616273e-01  -3.4641504351185698e-01  -3.8261961686070317e-01  -4.0389603952034409e-01  -4.1464386709072149e-01  -4.1845190837357915e-01  -4.1831734453212011e-01  -4.1675080148535187e-01  -4.1547137024826308e-01  -4.1525897404652484e-01  -4.1662124827986752e-01  -4.1981722466735161e-01  -4.2348647808829509e-01  -4.2252125078057617e-01  -4.0622656386304229e-01  -3.6097571954908253e-01  -2.8094479629516100e-01  -1.8059668363997536e-01  -9.1435076759418699e-02  -3.6124611116968380e-02  -9.0849590362211772e-03  2.8594359854118546e-03  4.8720376752990485e-03  1.8479845280653280e-03  -3.8053239947390854e-04  -2.6352547076903944e-04  2.4175995621914643e-03  -6.5131643060252547e-03  -3.1126103764144722e-02  -7.4526929619228438e-02  -1.4136927612453276e-01  -2.1977056523594593e-01  -2.8904933383307019e-01  -3.3712419769809365e-01  -3.6392849328458127e-01  -3.7491503659148845e-01  -3.7621491934721402e-01  -3.7319975048216647e-01  -3.6968527021698744e-01  -3.6733049399116025e-01  -3.6600420760991548e-01  -3.6501449943013392e-01  -3.6421866772067713e-01  -3.6412463340526419e-01  -3.6589881865556684e-01  -3.7151184086608086e-01  -3.8262426162241642e-01  -3.9681717218521789e-01  -4.0170321814654086e-01  -3.7479750739115197e-01  -2.9947105973343680e-01  -1.8899705080815588e-01  -8.7134261365700266e-02  -2.8666595844953624e-02  -6.0905196815990142e-03  7.8778232841895761e-04  7.3456649086824490e-04  -1.5386743222147080e-04  9.2584581442705044e-04  -3.4474827559711563e-03  -2.4892481189393870e-02  -6.4863901862950366e-02  -1.2654753114784292e-01  -2.0150213677646017e-01  -2.6812556804816629e-01  -3.1201551228688240e-01  -3.3293816006298976e-01  -3.3789294650937618e-01  -3.3515144103690886e-01  -3.3149354699155215e-01  -3.3019385104452492e-01  -3.3106776041652286e-01  -3.3260075229532754e-01  -3.3378252489875126e-01  -3.3435975066661028e-01  -3.3426639538914621e-01  -3.3348174808022046e-01  -3.3215324311707434e-01  -3.3097137497863344e-01  -3.3225158449707826e-01  -3.4060184056058262e-01  -3.5899688327189855e-01  -3.7711757854083344e-01  -3.6471331794380302e-01  -2.9325020023468412e-01  -1.7543911924770203e-01  -6.8721902955833331e-02  -1.5761318856189151e-02  -1.0000895658105284e-03  1.0639669724332506e-03  -2.4491019237666103e-04  2.3181612619318009e-03  -1.1701773436805635e-02  -4.6388398361599747e-02  -1.0019654990590453e-01  -1.6924732167986337e-01  -2.3451022090553192e-01  -2.7817223232410060e-01  -2.9767713827063280e-01  -3.0075378245831680e-01  -2.9744165332648304e-01  -2.9532618034573932e-01  -2.9661583443195422e-01  -2.9956628366567389e-01  -3.0229251375561911e-01  -3.0429402456283605e-01  -3.0573559293861619e-01  -3.0676285004231280e-01  -3.0752424821254432e-01  -3.0813994531256855e-01  -3.0853744543496153e-01  -3.0827929238295620e-01  -3.0662274770271064e-01  -3.0419018648710100e-01  -3.0662919043763404e-01  -3.2290697962712211e-01  -3.4681952415922168e-01  -3.4073540488370757e-01  -2.6609328543609806e-01  -1.4161535163458561e-01  -4.1318739972765035e-02  -3.7350939237125865e-03  1.1490930704544321e-03  -7.6077355567989775e-05  3.5832389063407714e-03  -2.0256692348345953e-02  -6.6387390894723231e-02  -1.2713742332952327e-01  -1.9090123806365314e-01  -2.3775608030021259e-01  -2.6021650158148996e-01  -2.6463575357022934e-01  -2.6216460530322644e-01  -2.6129085661120394e-01  -2.6387170844478730e-01  -2.6737977712280125e-01  -2.7005318777394205e-01  -2.7194406790960518e-01  -2.7342072397332789e-01  -2.7462654081783422e-01  -2.7567121794252342e-01  -2.7663031526130449e-01  -2.7758746911464038e-01  -2.7873580277526250e-01  -2.8028693946954064e-01  -2.8198168411288010e-01  -2.8213658459301855e-01  -2.7886443483552381e-01  -2.7722037254377291e-01  -2.9135215245713136e-01  -3.1726389596352972e-01  -3.0747946500214635e-01  -2.1980925431878273e-01  -9.2425358592301818e-02  -1.4649353530949953e-02  1.0414823865095315e-03  -1.1760743903780791e-04  4.5225304321819294e-03  -2.6964112374031596e-02  -7.9836282834137864e-02  -1.3912372382276736e-01  -1.9041138037038974e-01  -2.1954537397328372e-01  -2.2844495411237511e-01  -2.2779896104191227e-01  -2.2754599651796770e-01  -2.3052798768797483e-01  -2.3423379223807012e-01  -2.3691262506794661e-01  -2.3896210279250196e-01  -2.4083996917088268e-01  -2.4261123669810045e-01  -2.4426787805367028e-01  -2.4575144820975062e-01  -2.4704910263628468e-01  -2.4820004051992267e-01  -2.4921897782939595e-01  -2.5021683495162667e-01  -2.5168660449053215e-01  -2.5414543064871165e-01  -2.5577520212266180e-01  -2.5240627558904682e-01  -2.4896637197334801e-01  -2.6417818657062409e-01  -2.8918629944514229e-01  -2.6294429460344526e-01  -1.5502015344694653e-01  -3.9492207350255708e-02  5.1462733609169324e-04  -6.2755598404778035e-04  5.0071340066627666e-03  -3.0202262105006813e-02  -8.3914406424011115e-02  -1.3587348647160077e-01  -1.7365461238476684e-01  -1.9022313002189001e-01  -1.9330559819965684e-01  -1.9363150558218339e-01  -1.9656072786020870e-01  -2.0055422697945544e-01  -2.0357329770435587e-01  -2.0596708854623952e-01  -2.0828818499525539e-01  -2.1051148266029804e-01  -2.1256163866295166e-01  -2.1439578477663335e-01  -2.1606887359043936e-01  -2.1766010677160072e-01  -2.1920450928646121e-01  -2.2071812195337023e-01  -2.2208123722484679e-01  -2.2303831535017160e-01  -2.2402930240995250e-01  -2.2647703613461850e-01  -2.2852759120703817e-01  -2.2416803618635395e-01  -2.2134693404740674e-01  -2.4149114956543666e-01  -2.5799494958802854e-01  -2.0032465494247975e-01  -7.8057490891969700e-02  -3.9206511771472550e-03  5.6666569467027329e-04  4.9961580976410312e-03  -2.9426260655888683e-02  -7.8964802948468679e-02  -1.2124908611673024e-01  -1.4787330650036309e-01  -1.5740170032073958e-01  -1.5958974697883005e-01  -1.6224599634594805e-01  -1.6648542249572076e-01  -1.7010987554282694e-01  -1.7291031173802252e-01  -1.7556379298037814e-01  -1.7808111514640759e-01  -1.8035435716992670e-01  -1.8240028028730465e-01  -1.8431071202599428e-01  -1.8615089382977235e-01  -1.8793279217383874e-01  -1.8967914687477611e-01  -1.9142464601120743e-01  -1.9326502493665312e-01  -1.9511057376172306e-01  -1.9626379653209802e-01  -1.9696607476052580e-01  -1.9946885003903589e-01  -2.0081244930092262e-01  -1.9442236321670270e-01  -1.9662690396554885e-01  -2.2166383902650622e-01  -2.1243172569211635e-01  -1.1568961821660133e-01  -1.4477026378152749e-02  3.8095773761394158e-03  4.5289185900750650e-03  -2.5170981023892858e-02  -6.7335255715370898e-02  -9.9991045822794972e-02  -1.1860444910134579e-01  -1.2501720284332543e-01  -1.2810741727283542e-01  -1.3219800138371157e-01  -1.3647752497766882e-01  -1.3981074446896086e-01  -1.4272459876736779e-01  -1.4548001575811417e-01  -1.4795654780675971e-01  -1.5020629209679703e-01  -1.5234936590688578e-01  -1.5443897160456957e-01  -1.5647595471375975e-01  -1.5847992419604467e-01  -1.6046795380057741e-01  -1.6242120778511016e-01  -1.6429588998937519e-01  -1.6628632150249387e-01  -1.6845748040786118e-01  -1.6966516793032022e-01  -1.7036351682412998e-01  -1.7319572090979782e-01  -1.7201134323146688e-01  -1.6498014954977966e-01  -1.7811986047878814e-01  -1.9522178407920077e-01  -1.3798936992915073e-01  -3.0034929588484020e-02  7.6688489438560183e-03  3.6890421921226203e-03  -1.8538335929780502e-02  -5.1724649402080020e-02  -7.5847309182281913e-02  -8.9027158209192811e-02  -9.4330645186195133e-02  -9.8294742495205964e-02  -1.0278015915183916e-01  -1.0674732080207394e-01  -1.0995753317170291e-01  -1.1288357094747516e-01  -1.1554932713515682e-01  -1.1795256830219612e-01  -1.2023584082869714e-01  -1.2245983428029168e-01  -1.2463401759748545e-01  -1.2679657334513320e-01  -1.2898305945310348e-01  -1.3120578883006209e-01  -1.3348697543788748e-01  -1.3577595867201828e-01  -1.3786735483759940e-01  -1.4005966805640263e-01  -1.4244040158308749e-01  -1.4341163399725343e-01  -1.4469203648465651e-01  -1.4719804915067564e-01  -1.4156444427911252e-01  -1.4127278029504717e-01  -1.6267638378117522e-01  -1.4102516166388998e-01  -4.3704236583154477e-02  1.0615043025656048e-02  2.5739644369473869e-03  -1.0616901429957451e-02  -3.4280447658874114e-02  -5.1086846644447945e-02  -6.0475244833647170e-02  -6.5340813465591827e-02  -6.9600225523129264e-02  -7.3881125754539478e-02  -7.7469089543305503e-02  -8.0518040103870092e-02  -8.3289702216252259e-02  -8.5791791088171601e-02  -8.8116656291481230e-02  -9.0370687093731167e-02  -9.2582106095220260e-02  -9.4800561679783957e-02  -9.7075863402682733e-02  -9.9433622573266892e-02  -1.0188758548253633e-01  -1.0441372173303624e-01  -1.0706151199918099e-01  -1.0977068473804996e-01  -1.1216747817995398e-01  -1.1478582661236778e-01  -1.1718582008667920e-01  -1.1796845652487163e-01  -1.2057883553418364e-01  -1.1974500276658585e-01  -1.1328980505770023e-01  -1.2763186908133370e-01  -1.2885508418778763e-01  -5.1317450185346232e-02  1.1730382525576982e-02  1.2461302957808358e-03  -2.2487622393734760e-03  -1.6312653950666205e-02  -2.6784536932640022e-02  -3.3234017424465474e-02  -3.7672314248273372e-02  -4.1725865085270389e-02  -4.5498962636751399e-02  -4.8654706642554252e-02  -5.1420369053956097e-02  -5.3921230018299147e-02  -5.6207704906742206e-02  -5.8385010672157608e-02  -6.0525914153728377e-02  -6.2683739634405239e-02  -6.4922404723573079e-02  -6.7286972500294820e-02  -6.9803767819814372e-02  -7.2493292959175934e-02  -7.5364885164477674e-02  -7.8323542167128057e-02  -8.1473358197613643e-02  -8.4656304318724340e-02  -8.7499756015580618e-02  -9.0777464213608328e-02  -9.2781809601610629e-02  -9.4549499245288021e-02  -9.7064321629454844e-02  -9.1086538516122945e-02  -9.6840594614347797e-02  -1.0880792866510323e-01  -5.2633013327793583e-02  1.1196436312030596e-02  -2.1796770865752528e-04  6.1520247910458572e-03  1.3766957466389760e-03  -3.2274412085752601e-03  -7.1128484087063489e-03  -1.0917710433524458e-02  -1.4470562191049360e-02  -1.7582493963106793e-02  -2.0231522880773834e-02  -2.2594973383994268e-02  -2.4741575053527330e-02  -2.6738640149863994e-02  -2.8686989943335000e-02  -3.0652092005162553e-02  -3.2708337323109161e-02  -3.4919641123512778e-02  -3.7333537908473505e-02  -3.9994507109782938e-02  -4.2913452659204931e-02  -4.6105105618188834e-02  -4.9577272850741656e-02  -5.3154711895678601e-02  -5.7040615803967028e-02  -6.0739325062999748e-02  -6.4462367297566742e-02  -6.8157098186238496e-02  -7.0128219021139054e-02  -7.3988382035428291e-02  -7.1590462896813423e-02  -7.1842693450106798e-02  -8.7023445177628111e-02  -4.9478176660788097e-02  9.7416345503558415e-03  -1.5826762228945482e-03  1.3644408558750822e-02  1.8694770694854028e-02  1.9380262659132418e-02  1.8358558488198350e-02  1.5180299911073898e-02  1.2375513712060733e-02  9.9174119363585576e-03  7.8940249233866097e-03  5.9963684697019555e-03  4.2997560426629939e-03  2.6643512859968305e-03  1.0301830426124572e-03  -6.9328146771782900e-04  -2.5814982690281285e-03  -4.7091495234310946e-03  -7.1389333346327704e-03  -9.9096252471844726e-03  -1.3075888220732367e-02  -1.6604402127572759e-02  -2.0538829347687554e-02  -2.4802428890408089e-02  -2.9295849669678777e-02  -3.4106372408043643e-02  -3.8583660676298565e-02  -4.3662412077185936e-02  -4.7091434169148981e-02  -5.1537343064272885e-02  -5.3198273137715607e-02  -5.1738318734091411e-02  -6.6992492572884837e-02  -4.4078529726466080e-02  8.0329910536056318e-03  -3.0572076224131932e-03  1.9721095590451720e-02  3.5249844915680048e-02  4.1159310237178913e-02  4.3405381668085920e-02  4.1038285568714424e-02  3.8917894510260696e-02  3.7158513219897694e-02  3.5780482033036604e-02  3.4450514938567253e-02  3.3256230121783921e-02  3.2085117698665878e-02  3.0837412132992521e-02  2.9443859712561190e-02  2.7792815515055195e-02  2.5808741133069621e-02  2.3413940460423072e-02  2.0545249484563918e-02  1.7175434926718053e-02  1.3251925775518586e-02  8.8402931113958395e-03  3.8572762038731599e-03  -1.4466359627798079e-03  -7.3041386251331232e-03  -1.3045226365079609e-02  -1.9317258275834828e-02  -2.4852866514189734e-02  -3.0212073820423457e-02  -3.5415398771769920e-02  -3.5115098816203442e-02  -4.9954440968385125e-02  -3.8112166211370417e-02  6.4346917494049558e-03  -4.2568430950467532e-03  2.3856966773615831e-02  5.0559432900875584e-02  6.2170584635635830e-02  6.8041968675023629e-02  6.6990517894284923e-02  6.5251321877094703e-02  6.4240966178977246e-02  6.3472199055935721e-02  6.2815027603636636e-02  6.2175612809572678e-02  6.1566284682668303e-02  6.0801309498047740e-02  5.9818441957057052e-02  5.8498414683893919e-02  5.6729270881486292e-02  5.4429926033290534e-02  5.1518714709910436e-02  4.7947776927768589e-02  4.3674563452055157e-02  3.8689857403590946e-02  3.3008656148478387e-02  2.6697307773384478e-02  1.9792182115054395e-02  1.2479354329931046e-02  4.8694459516944186e-03  -2.9585471729527530e-03  -9.9393242973136973e-03  -1.8188024561185647e-02  -2.0773274136484957e-02  -3.5924977965711730e-02  -3.2541228130407975e-02  5.0629616665078423e-03  -5.1608033082711112e-03  2.5757897781076313e-02  6.3415801190302448e-02  8.2150184484632599e-02  9.2000101336397244e-02  9.3171330058770235e-02  9.1574780457005400e-02  9.1144022968879745e-02  9.1028656478363112e-02  9.1067140606926431e-02  9.1112946363223965e-02  9.1136262136514601e-02  9.1000724617365400e-02  9.0539105013094492e-02  8.9650251894032043e-02  8.8198846988190707e-02  8.6068458628328931e-02  8.3172147194527868e-02  7.9433492340836936e-02  7.4795663810558202e-02  6.9244264785528892e-02  6.2804842894979868e-02  5.5428826100688437e-02  4.7308859188006001e-02  3.8348652616370577e-02  2.9048256575226177e-02  1.8904314003176874e-02  9.6598906949611034e-03  -1.5193249910604306e-03  -7.8387707980044127e-03  -2.4447664279598609e-02  -2.7776836498946657e-02  3.9002613818650200e-03  -5.2177017442593624e-03  2.4765098028255762e-02  7.2411653108599983e-02  1.0036928485976895e-01  1.1485366281573284e-01  1.1934585086892745e-01  1.1821179559692538e-01  1.1791640038750328e-01  1.1854325014525534e-01  1.1929520807140809e-01  1.2015563211918032e-01  1.2093339927747769e-01  1.2152356986454431e-01  1.2173327803453224e-01  1.2138666417628749e-01  1.2034618322445666e-01  1.1847341264515998e-01  1.1565348021728600e-01  1.1178806526711696e-01  1.0683311302235915e-01  1.0074774816025159e-01  9.3467734970015662e-02  8.5003705970423907e-02  7.5514095745837131e-02  6.4867258147156409e-02  5.3500500504190890e-02  4.1062733324620328e-02  2.8976793418031537e-02  1.4771983705996547e-02  4.2258944397734243e-03  -1.4924742411789335e-02  -2.3929112841902807e-02  2.9328184130466600e-03  -4.8702424428656256e-03  2.1233833582988238e-02  7.5217779147967692e-02  1.1482297717308652e-01  1.3552510051253819e-01  1.4446827729047229e-01  1.4503889159009623e-01  1.4445181604992971e-01  1.4562776285721418e-01  1.4727202215304158e-01  1.4903859555836099e-01  1.5080758308787295e-01  1.5231466624058262e-01  1.5336983905536511e-01  1.5375755700462423e-01  1.5328734030816998e-01  1.5180481719525815e-01  1.4917371140650734e-01  1.4529682656091109e-01  1.4007372757173212e-01  1.3339644560179817e-01  1.2525786046815496e-01  1.1571747323582002e-01  1.0477711742930695e-01  9.2272466846615289e-02  7.8696697423580514e-02  6.3793405285162599e-02  4.8457565620818710e-02  3.0998189221589270e-02  1.5711845973184143e-02  -6.7526380397625587e-03  -2.0991688454834397e-02  2.1408389515971617e-03  -3.3426576675554239e-03  1.5413252592107114e-02  7.0834298404880550e-02  1.2303372093969035e-01  1.5290194263781276e-01  1.6749463186953903e-01  1.7174613230603838e-01  1.7156956615038405e-01  1.7273505702967343e-01  1.7540720863275611e-01  1.7830916492985849e-01  1.8120021383219381e-01  1.8383985468373798e-01  1.8591422852957007e-01  1.8717655892654553e-01  1.8740497362642120e-01  1.8640835851625726e-01  1.8403473988998995e-01  1.8013904581169557e-01  1.7461405594338220e-01  1.6743602185831830e-01  1.5857102423928224e-01  1.4794929739377211e-01  1.3537473084754509e-01  1.2094683658732486e-01  1.0512166848865419e-01  8.7486591429597638e-02  6.8552593078356622e-02  4.7452431862990051e-02  2.6941443862478740e-02  4.4849942810174144e-04  -1.8903920690312857e-02  1.5914665905363190e-03  -2.5205087374086774e-03  9.7854039362924410e-03  5.8753524361561886e-02  1.2083941292457999e-01  1.6325221484553903e-01  1.8563820192203745e-01  1.9555000407035292e-01  1.9795859705032784e-01  1.9919355835357580e-01  2.0248258548455972e-01  2.0689684448431025e-01  2.1131558991410729e-01  2.1537699492156512e-01  2.1877180565584209e-01  2.2118295067952165e-01  2.2234968618606901e