<?xml version="1.0"?>
<VTKFile type="UnstructuredGrid"  version="0.1"  >
<UnstructuredGrid>
<Piece  NumberOfPoints="1089" NumberOfCells="1024">
<Points>
<DataArray  type="Float64"  NumberOfComponents="3"  format="ascii">0 0 0  0.03125 0 0  0.0625 0 0  0.09375 0 0  0.125 0 0  0.15625 0 0  0.1875 0 0  0.21875 0 0  0.25 0 0  0.28125 0 0  0.3125 0 0  0.34375 0 0  0.375 0 0  0.40625 0 0  0.4375 0 0  0.46875 0 0  0.5 0 0  0.53125 0 0  0.5625 0 0  0.59375 0 0  0.625 0 0  0.65625 0 0  0.6875 0 0  0.71875 0 0  0.75 0 0  0.78125 0 0  0.8125 0 0  0.84375 0 0  0.875 0 0  0.90625 0 0  0.9375 0 0  0.96875 0 0  1 0 0  0 0.03125 0  0.03125 0.03125 0  0.0625 0.03125 0  0.09375 0.03125 0  0.125 0.03125 0  0.15625 0.03125 0  0.1875 0.03125 0  0.21875 0.03125 0  0.25 0.03125 0  0.28125 0.03125 0  0.3125 0.03125 0  0.34375 0.03125 0  0.375 0.03125 0  0.40625 0.03125 0  0.4375 0.03125 0  0.46875 0.03125 0  0.5 0.03125 0  0.53125 0.03125 0  0.5625 0.03125 0  0.59375 0.03125 0  0.625 0.03125 0  0.65625 0.03125 0  0.6875 0.03125 0  0.71875 0.03125 0  0.75 0.03125 0  0.78125 0.03125 0  0.8125 0.03125 0  0.84375 0.03125 0  0.875 0.03125 0  0.90625 0.03125 0  0.9375 0.03125 0  0.96875 0.03125 0  1 0.03125 0  0 0.0625 0  0.03125 0.0625 0  0.0625 0.0625 0  0.09375 0.0625 0  0.125 0.0625 0  0.15625 0.0625 0  0.1875 0.0625 0  0.21875 0.0625 0  0.25 0.0625 0  0.28125 0.0625 0  0.3125 0.0625 0  0.34375 0.0625 0  0.375 0.0625 0  0.40625 0.0625 0  0.4375 0.0625 0  0.46875 0.0625 0  0.5 0.0625 0  0.53125 0.0625 0  0.5625 0.0625 0  0.59375 0.0625 0  0.625 0.0625 0  0.65625 0.0625 0  0.6875 0.0625 0  0.71875 0.0625 0  0.75 0.0625 0  0.78125 0.0625 0  0.8125 0.0625 0  0.84375 0.0625 0  0.875 0.0625 0  0.90625 0.0625 0  0.9375 0.0625 0  0.96875 0.0625 0  1 0.0625 0  0 0.09375 0  0.03125 0.09375 0  0.0625 0.09375 0  0.09375 0.09375 0  0.125 0.09375 0  0.15625 0.09375 0  0.1875 0.09375 0  0.21875 0.09375 0  0.25 0.09375 0  0.28125 0.09375 0  0.3125 0.09375 0  0.34375 0.09375 0  0.375 0.09375 0  0.40625 0.09375 0  0.4375 0.09375 0  0.46875 0.09375 0  0.5 0.09375 0  0.53125 0.09375 0  0.5625 0.09375 0  0.59375 0.09375 0  0.625 0.09375 0  0.65625 0.09375 0  0.6875 0.09375 0  0.71875 0.09375 0  0.75 0.09375 0  0.78125 0.09375 0  0.8125 0.09375 0  0.84375 0.09375 0  0.875 0.09375 0  0.90625 0.09375 0  0.9375 0.09375 0  0.96875 0.09375 0  1 0.09375 0  0 0.125 0  0.03125 0.125 0  0.0625 0.125 0  0.09375 0.125 0  0.125 0.125 0  0.15625 0.125 0  0.1875 0.125 0  0.21875 0.125 0  0.25 0.125 0  0.28125 0.125 0  0.3125 0.125 0  0.34375 0.125 0  0.375 0.125 0  0.40625 0.125 0  0.4375 0.125 0  0.46875 0.125 0  0.5 0.125 0  0.53125 0.125 0  0.5625 0.125 0  0.59375 0.125 0  0.625 0.125 0  0.65625 0.125 0  0.6875 0.125 0  0.71875 0.125 0  0.75 0.125 0  0.78125 0.125 0  0.8125 0.125 0  0.84375 0.125 0  0.875 0.125 0  0.90625 0.125 0  0.9375 0.125 0  0.96875 0.125 0  1 0.125 0  0 0.15625 0  0.03125 0.15625 0  0.0625 0.15625 0  0.09375 0.15625 0  0.125 0.15625 0  0.15625 0.15625 0  0.1875 0.15625 0  0.21875 0.15625 0  0.25 0.15625 0  0.28125 0.15625 0  0.3125 0.15625 0  0.34375 0.15625 0  0.375 0.15625 0  0.40625 0.15625 0  0.4375 0.15625 0  0.46875 0.15625 0  0.5 0.15625 0  0.53125 0.15625 0  0.5625 0.15625 0  0.59375 0.15625 0  0.625 0.15625 0  0.65625 0.15625 0  0.6875 0.15625 0  0.71875 0.15625 0  0.75 0.15625 0  0.78125 0.15625 0  0.8125 0.15625 0  0.84375 0.15625 0  0.875 0.15625 0  0.90625 0.15625 0  0.9375 0.15625 0  0.96875 0.15625 0  1 0.15625 0  0 0.1875 0  0.03125 0.1875 0  0.0625 0.1875 0  0.09375 0.1875 0  0.125 0.1875 0  0.15625 0.1875 0  0.1875 0.1875 0  0.21875 0.1875 0  0.25 0.1875 0  0.28125 0.1875 0  0.3125 0.1875 0  0.34375 0.1875 0  0.375 0.1875 0  0.40625 0.1875 0  0.4375 0.1875 0  0.46875 0.1875 0  0.5 0.1875 0  0.53125 0.1875 0  0.5625 0.1875 0  0.59375 0.1875 0  0.625 0.1875 0  0.65625 0.1875 0  0.6875 0.1875 0  0.71875 0.1875 0  0.75 0.1875 0  0.78125 0.1875 0  0.8125 0.1875 0  0.84375 0.1875 0  0.875 0.1875 0  0.90625 0.1875 0  0.9375 0.1875 0  0.96875 0.1875 0  1 0.1875 0  0 0.21875 0  0.03125 0.21875 0  0.0625 0.21875 0  0.09375 0.21875 0  0.125 0.21875 0  0.15625 0.21875 0  0.1875 0.21875 0  0.21875 0.21875 0  0.25 0.21875 0  0.28125 0.21875 0  0.3125 0.21875 0  0.34375 0.21875 0  0.375 0.21875 0  0.40625 0.21875 0  0.4375 0.21875 0  0.46875 0.21875 0  0.5 0.21875 0  0.53125 0.21875 0  0.5625 0.21875 0  0.59375 0.21875 0  0.625 0.21875 0  0.65625 0.21875 0  0.6875 0.21875 0  0.71875 0.21875 0  0.75 0.21875 0  0.78125 0.21875 0  0.8125 0.21875 0  0.84375 0.21875 0  0.875 0.21875 0  0.90625 0.21875 0  0.9375 0.21875 0  0.96875 0.21875 0  1 0.21875 0  0 0.25 0  0.03125 0.25 0  0.0625 0.25 0  0.09375 0.25 0  0.125 0.25 0  0.15625 0.25 0  0.1875 0.25 0  0.21875 0.25 0  0.25 0.25 0  0.28125 0.25 0  0.3125 0.25 0  0.34375 0.25 0  0.375 0.25 0  0.40625 0.25 0  0.4375 0.25 0  0.46875 0.25 0  0.5 0.25 0  0.53125 0.25 0  0.5625 0.25 0  0.59375 0.25 0  0.625 0.25 0  0.65625 0.25 0  0.6875 0.25 0  0.71875 0.25 0  0.75 0.25 0  0.78125 0.25 0  0.8125 0.25 0  0.84375 0.25 0  0.875 0.25 0  0.90625 0.25 0  0.9375 0.25 0  0.96875 0.25 0  1 0.25 0  0 0.28125 0  0.03125 0.28125 0  0.0625 0.28125 0  0.09375 0.28125 0  0.125 0.28125 0  0.15625 0.28125 0  0.1875 0.28125 0  0.21875 0.28125 0  0.25 0.28125 0  0.28125 0.28125 0  0.3125 0.28125 0  0.34375 0.28125 0  0.375 0.28125 0  0.40625 0.28125 0  0.4375 0.28125 0  0.46875 0.28125 0  0.5 0.28125 0  0.53125 0.28125 0  0.5625 0.28125 0  0.59375 0.28125 0  0.625 0.28125 0  0.65625 0.28125 0  0.6875 0.28125 0  0.71875 0.28125 0  0.75 0.28125 0  0.78125 0.28125 0  0.8125 0.28125 0  0.84375 0.28125 0  0.875 0.28125 0  0.90625 0.28125 0  0.9375 0.28125 0  0.96875 0.28125 0  1 0.28125 0  0 0.3125 0  0.03125 0.3125 0  0.0625 0.3125 0  0.09375 0.3125 0  0.125 0.3125 0  0.15625 0.3125 0  0.1875 0.3125 0  0.21875 0.3125 0  0.25 0.3125 0  0.28125 0.3125 0  0.3125 0.3125 0  0.34375 0.3125 0  0.375 0.3125 0  0.40625 0.3125 0  0.4375 0.3125 0  0.46875 0.3125 0  0.5 0.3125 0  0.53125 0.3125 0  0.5625 0.3125 0  0.59375 0.3125 0  0.625 0.3125 0  0.65625 0.3125 0  0.6875 0.3125 0  0.71875 0.3125 0  0.75 0.3125 0  0.78125 0.3125 0  0.8125 0.3125 0  0.84375 0.3125 0  0.875 0.3125 0  0.90625 0.3125 0  0.9375 0.3125 0  0.96875 0.3125 0  1 0.3125 0  0 0.34375 0  0.03125 0.34375 0  0.0625 0.34375 0  0.09375 0.34375 0  0.125 0.34375 0  0.15625 0.34375 0  0.1875 0.34375 0  0.21875 0.34375 0  0.25 0.34375 0  0.28125 0.34375 0  0.3125 0.34375 0  0.34375 0.34375 0  0.375 0.34375 0  0.40625 0.34375 0  0.4375 0.34375 0  0.46875 0.34375 0  0.5 0.34375 0  0.53125 0.34375 0  0.5625 0.34375 0  0.59375 0.34375 0  0.625 0.34375 0  0.65625 0.34375 0  0.6875 0.34375 0  0.71875 0.34375 0  0.75 0.34375 0  0.78125 0.34375 0  0.8125 0.34375 0  0.84375 0.34375 0  0.875 0.34375 0  0.90625 0.34375 0  0.9375 0.34375 0  0.96875 0.34375 0  1 0.34375 0  0 0.375 0  0.03125 0.375 0  0.0625 0.375 0  0.09375 0.375 0  0.125 0.375 0  0.15625 0.375 0  0.1875 0.375 0  0.21875 0.375 0  0.25 0.375 0  0.28125 0.375 0  0.3125 0.375 0  0.34375 0.375 0  0.375 0.375 0  0.40625 0.375 0  0.4375 0.375 0  0.46875 0.375 0  0.5 0.375 0  0.53125 0.375 0  0.5625 0.375 0  0.59375 0.375 0  0.625 0.375 0  0.65625 0.375 0  0.6875 0.375 0  0.71875 0.375 0  0.75 0.375 0  0.78125 0.375 0  0.8125 0.375 0  0.84375 0.375 0  0.875 0.375 0  0.90625 0.375 0  0.9375 0.375 0  0.96875 0.375 0  1 0.375 0  0 0.40625 0  0.03125 0.40625 0  0.0625 0.40625 0  0.09375 0.40625 0  0.125 0.40625 0  0.15625 0.40625 0  0.1875 0.40625 0  0.21875 0.40625 0  0.25 0.40625 0  0.28125 0.40625 0  0.3125 0.40625 0  0.34375 0.40625 0  0.375 0.40625 0  0.40625 0.40625 0  0.4375 0.40625 0  0.46875 0.40625 0  0.5 0.40625 0  0.53125 0.40625 0  0.5625 0.40625 0  0.59375 0.40625 0  0.625 0.40625 0  0.65625 0.40625 0  0.6875 0.40625 0  0.71875 0.40625 0  0.75 0.40625 0  0.78125 0.40625 0  0.8125 0.40625 0  0.84375 0.40625 0  0.875 0.40625 0  0.90625 0.40625 0  0.9375 0.40625 0  0.96875 0.40625 0  1 0.40625 0  0 0.4375 0  0.03125 0.4375 0  0.0625 0.4375 0  0.09375 0.4375 0  0.125 0.4375 0  0.15625 0.4375 0  0.1875 0.4375 0  0.21875 0.4375 0  0.25 0.4375 0  0.28125 0.4375 0  0.3125 0.4375 0  0.34375 0.4375 0  0.375 0.4375 0  0.40625 0.4375 0  0.4375 0.4375 0  0.46875 0.4375 0  0.5 0.4375 0  0.53125 0.4375 0  0.5625 0.4375 0  0.59375 0.4375 0  0.625 0.4375 0  0.65625 0.4375 0  0.6875 0.4375 0  0.71875 0.4375 0  0.75 0.4375 0  0.78125 0.4375 0  0.8125 0.4375 0  0.84375 0.4375 0  0.875 0.4375 0  0.90625 0.4375 0  0.9375 0.4375 0  0.96875 0.4375 0  1 0.4375 0  0 0.46875 0  0.03125 0.46875 0  0.0625 0.46875 0  0.09375 0.46875 0  0.125 0.46875 0  0.15625 0.46875 0  0.1875 0.46875 0  0.21875 0.46875 0  0.25 0.46875 0  0.28125 0.46875 0  0.3125 0.46875 0  0.34375 0.46875 0  0.375 0.46875 0  0.40625 0.46875 0  0.4375 0.46875 0  0.46875 0.46875 0  0.5 0.46875 0  0.53125 0.46875 0  0.5625 0.46875 0  0.59375 0.46875 0  0.625 0.46875 0  0.65625 0.46875 0  0.6875 0.46875 0  0.71875 0.46875 0  0.75 0.46875 0  0.78125 0.46875 0  0.8125 0.46875 0  0.84375 0.46875 0  0.875 0.46875 0  0.90625 0.46875 0  0.9375 0.46875 0  0.96875 0.46875 0  1 0.46875 0  0 0.5 0  0.03125 0.5 0  0.0625 0.5 0  0.09375 0.5 0  0.125 0.5 0  0.15625 0.5 0  0.1875 0.5 0  0.21875 0.5 0  0.25 0.5 0  0.28125 0.5 0  0.3125 0.5 0  0.34375 0.5 0  0.375 0.5 0  0.40625 0.5 0  0.4375 0.5 0  0.46875 0.5 0  0.5 0.5 0  0.53125 0.5 0  0.5625 0.5 0  0.59375 0.5 0  0.625 0.5 0  0.65625 0.5 0  0.6875 0.5 0  0.71875 0.5 0  0.75 0.5 0  0.78125 0.5 0  0.8125 0.5 0  0.84375 0.5 0  0.875 0.5 0  0.90625 0.5 0  0.9375 0.5 0  0.96875 0.5 0  1 0.5 0  0 0.53125 0  0.03125 0.53125 0  0.0625 0.53125 0  0.09375 0.53125 0  0.125 0.53125 0  0.15625 0.53125 0  0.1875 0.53125 0  0.21875 0.53125 0  0.25 0.53125 0  0.28125 0.53125 0  0.3125 0.53125 0  0.34375 0.53125 0  0.375 0.53125 0  0.40625 0.53125 0  0.4375 0.53125 0  0.46875 0.53125 0  0.5 0.53125 0  0.53125 0.53125 0  0.5625 0.53125 0  0.59375 0.53125 0  0.625 0.53125 0  0.65625 0.53125 0  0.6875 0.53125 0  0.71875 0.53125 0  0.75 0.53125 0  0.78125 0.531
[...]
<PointData  Scalars="v_sol"> 
<DataArray  type="Float64"  Name="v_sol"  format="ascii">2.7403366118175665e-05  4.7554635526204854e-04  5.9999738820908945e-04  3.5593745322268450e-04  9.3006255055535852e-05  -1.3354399551742137e-05  -1.0153158905686139e-04  -2.6408716594448562e-04  -6.9006271102099248e-04  -1.7295127531683609e-03  -3.1900096194998001e-03  -4.4491531017039629e-03  -4.9496121962634872e-03  -4.4997643911292339e-03  -3.2551460063111057e-03  -1.6177600176717560e-03  1.6023109970073111e-04  2.0307267321216442e-03  3.5966289355038902e-03  4.7711511700171249e-03  5.3795730680559145e-03  5.3118593403254514e-03  4.5859730127810290e-03  3.3514272758378713e-03  1.7665547705780005e-03  -4.7736825117559698e-05  -1.5912962155380994e-03  -2.0681410146268517e-03  -1.7440009183759286e-03  -1.1941084367931495e-03  -7.2847174612511900e-04  -3.5877724835914603e-04  4.2363305362540969e-07  1.1967914863233604e-04  -2.5267890453156178e-03  -3.2481547837193464e-03  -1.8039089609010943e-03  -3.8808900445201091e-04  4.2967383928401099e-05  3.0567857672167116e-04  1.3126663294057241e-03  3.6416000517210958e-03  8.0048775616673069e-03  1.4091232740132494e-02  2.0076502136960953e-02  2.3708806722943947e-02  2.3727294875774949e-02  1.9958558904626930e-02  1.2814648267598421e-02  3.0741047895051069e-03  -7.8423064946354648e-03  -1.8387528973501342e-02  -2.7211656457424082e-02  -3.2276427166318802e-02  -3.2049822463565955e-02  -2.6326370174413111e-02  -1.6777244280825582e-02  -5.9008668200412062e-03  3.9151522109107861e-03  9.7747452465321745e-03  1.0707217245493882e-02  8.6224456923501090e-03  5.7505228749477506e-03  3.5533240720421453e-03  1.7003287948054366e-03  -2.0669885690034710e-04  -3.8069978136186868e-04  -9.0739611041344113e-03  -9.7994411822417832e-03  -4.4621823629233852e-03  9.6101802677411440e-04  4.5309060966650990e-03  9.6100650684505101e-03  2.0048501686249717e-02  3.6302920965061623e-02  5.4917695060172959e-02  6.9657046723485855e-02  7.5817449269407811e-02  7.2367690632247586e-02  6.0884906899200023e-02  4.3781297360335397e-02  2.3117738737604948e-02  2.9919470404476110e-04  -2.3862049197990461e-02  -4.8306344046026205e-02  -7.0679929830881741e-02  -8.7361857338162999e-02  -9.3638206622631767e-02  -8.6223915630016995e-02  -6.6373634064442258e-02  -4.0577639128715051e-02  -1.5843077726957030e-02  4.7163497076458862e-03  1.7972366757770471e-02  2.1544052718076332e-02  1.8471804457982514e-02  1.3283420450280995e-02  7.9443270014632854e-03  3.2767160087790394e-04  -1.3957875674955745e-03  -1.7253349880879947e-02  -1.4657256536020499e-02  -2.2788794089486602e-03  9.4208792012133863e-03  2.1783345165998808e-02  4.2466715874664100e-02  7.2613545689098183e-02  1.0374701567718909e-01  1.2517716995074274e-01  1.3165430665727729e-01  1.2431530660859952e-01  1.0726305610033435e-01  8.4434637495193907e-02  5.8358069355213302e-02  3.0208810574437257e-02  3.1980257035002713e-04  -3.1199938737172674e-02  -6.4143184054335153e-02  -9.7727037183400950e-02  -1.2906577755097370e-01  -1.5225025985351762e-01  -1.5881000835094145e-01  -1.4225875732834325e-01  -1.0508570289645650e-01  -6.0649988971312296e-02  -2.3091334754677038e-02  3.9027053161691124e-03  2.0291663179537050e-02  2.5060830630481225e-02  2.2184637212693179e-02  1.5377462585507883e-02  1.1788188838604018e-03  -3.2865191336064487e-03  -2.5042879501103538e-02  -1.3467613868613884e-02  9.0246116831923830e-03  3.1727365400983289e-02  6.3135214083235427e-02  1.0644544179754932e-01  1.4925618929798834e-01  1.7663736102401398e-01  1.8323860828796285e-01  1.7260469299736422e-01  1.5104054044768936e-01  1.2367137253350109e-01  9.3681328582705795e-02  6.2763374931413776e-02  3.1600404061438971e-02  1.7007410736858384e-04  -3.2093780938210192e-02  -6.6056142345760710e-02  -1.0235917403960439e-01  -1.4099388837205892e-01  -1.7955241532209559e-01  -2.1058516444000930e-01  -2.2073235654885109e-01  -1.9730082404282984e-01  -1.4173203618174532e-01  -7.5686390771164999e-02  -2.4379982353388351e-02  6.5273637603365893e-03  2.2540153021027895e-02  2.6139844855521396e-02  2.0579558342865893e-02  1.6848181394380523e-03  -6.2219643541202782e-03  -2.8287181244598569e-02  -2.1402357640730378e-03  3.3466334955840303e-02  7.5480731537187776e-02  1.3054711681072872e-01  1.8525914174218625e-01  2.1991484448880730e-01  2.2779170247163766e-01  2.1440406711888046e-01  1.8844530338744095e-01  1.5680865231872784e-01  1.2380702922606092e-01  9.1499306321293328e-02  6.0297674273871595e-02  2.9741652392151968e-02  -8.4545344962220050e-04  -3.1981484733220641e-02  -6.3971154509561409e-02  -9.7356866540332168e-02  -1.3312904691715924e-01  -1.7271811677564353e-01  -2.1606087234160679e-01  -2.5609633809392574e-01  -2.7384293957585643e-01  -2.4662526832387413e-01  -1.7218621637572651e-01  -8.2845934573945873e-02  -1.8793779942829398e-02  1.3108852872483631e-02  2.5687985397586838e-02  2.2784345122171028e-02  1.8942617860161339e-03  -9.2336914088882519e-03  -2.2004203731540328e-02  2.1584749587206631e-02  7.5027213906517953e-02  1.4014859240135330e-01  2.0760816701004337e-01  2.5303355386385623e-01  2.6541654061567943e-01  2.5119484910117540e-01  2.2206484435641813e-01  1.8759074455474462e-01  1.5342198585149364e-01  1.2131800028781115e-01  9.0668491966692757e-02  6.0375305798756843e-02  2.9800826085965869e-02  -1.2227212361400177e-03  -3.2705624064900199e-02  -6.4659169206443975e-02  -9.6927958685944102e-02  -1.2939894815506048e-01  -1.6274591077928158e-01  -1.9978245128583882e-01  -2.4445253618990606e-01  -2.9246815247873537e-01  -3.1845682612665416e-01  -2.8590909934051878e-01  -1.8872423196309532e-01  -7.6069647486160366e-02  -5.4970955162485079e-03  2.1433787842862834e-02  2.3873591994316504e-02  2.1603534292805996e-03  -9.9889220847527629e-03  -3.1255789592395697e-03  5.8785994948174838e-02  1.3279336097937053e-01  2.1277706727002757e-01  2.7374586595361361e-01  2.9640990107911669e-01  2.8515261822690752e-01  2.5495253227451947e-01  2.1903696924363111e-01  1.8481722030909792e-01  1.5349810875415340e-01  1.2332241871459360e-01  9.2948555091542998e-02  6.2123767113151297e-02  3.0953826625920031e-02  -5.7320092791710432e-04  -3.2541177397990513e-02  -6.4984897839775485e-02  -9.7876890888195636e-02  -1.3089568405888322e-01  -1.6323046894606696e-01  -1.9435976019774467e-01  -2.2752838968846592e-01  -2.7158889111133577e-01  -3.2642503689500696e-01  -3.5732766051666959e-01  -3.1035485871910951e-01  -1.8223720689804843e-01  -5.1326346897460462e-02  1.1872221292302088e-02  2.4640894521381008e-02  3.0783771468463799e-03  -6.6865343463971645e-03  2.8891541970788196e-02  1.0797255351587837e-01  1.9836983329390331e-01  2.7797757599789047e-01  3.1894034632390700e-01  3.1688917187823146e-01  2.8855820194698240e-01  2.5199354616609726e-01  2.1763641338043910e-01  1.8681115646502741e-01  1.5674042041811220e-01  1.2603674825506961e-01  9.4891132640144191e-02  6.3572918519628166e-02  3.2077948594143271e-02  3.4417734336690737e-04  -3.1683906694572432e-02  -6.4073696313137210e-02  -9.6876842890620332e-02  -1.3019799541390584e-01  -1.6398433381404001e-01  -1.9708301580504040e-01  -2.2714533217917113e-01  -2.5698078869162233e-01  -3.0142760138974911e-01  -3.6333484869413096e-01  -3.9042106427508955e-01  -3.1065340948749287e-01  -1.4394489860461707e-01  -1.2732335327094670e-02  2.3703075128129390e-02  4.9531498015415384e-03  8.4525892482056376e-04  7.2018528454014602e-02  1.6391253268087319e-01  2.6124880364901937e-01  3.2751708093145587e-01  3.4442757025864673e-01  3.2300669917872066e-01  2.8673205640982019e-01  2.5142006018062957e-01  2.2046928677199704e-01  1.9039331472423290e-01  1.5938846913961516e-01  1.2799702697289256e-01  9.6569438227542048e-02  6.5062893162971688e-02  3.3405090116132394e-02  1.5246471369581959e-03  -3.0633371755190174e-02  -6.3070285088652214e-02  -9.5753974157460689e-02  -1.2862907751697333e-01  -1.6188375388926934e-01  -1.9609836845532780e-01  -2.3024469030375352e-01  -2.5970033259429048e-01  -2.8744398607420824e-01  -3.3673027024626129e-01  -4.0569792717592296e-01  -4.0941817601774966e-01  -2.7073426295570796e-01  -7.3037725468116529e-02  2.0475971140858900e-02  6.1682061678054127e-03  1.1339722986596742e-02  1.2180430809725258e-01  2.1984312749404122e-01  3.1457829998719744e-01  3.6108833353424391e-01  3.5665904127434739e-01  3.2364837653644257e-01  2.8658314671915947e-01  2.5443343158834342e-01  2.2433059547927220e-01  1.9320602321541736e-01  1.6161205413577728e-01  1.3011116884123686e-01  9.8579747521931479e-02  6.6932950664022300e-02  3.5097856643539899e-02  3.0475705000976125e-03  -2.9227578246747356e-02  -6.1762560762902777e-02  -9.4582445276753829e-02  -1.2763382877188553e-01  -1.6064545139670064e-01  -1.9370300452519459e-01  -2.2826889068938247e-01  -2.6333141804176741e-01  -2.9124770366867897e-01  -3.1939319649283460e-01  -3.8169786272691608e-01  -4.4913074136796893e-01  -3.9119977297362191e-01  -1.7497140371686343e-01  4.7502040412915683e-03  9.6395217485538993e-03  2.2628035600998197e-02  1.7264416746498262e-01  2.7043752119251058e-01  3.5631628875492405e-01  3.8247606257646088e-01  3.6232970850880952e-01  3.2439349953584040e-01  2.8936172345781902e-01  2.5863878584286837e-01  2.2762083907163311e-01  1.9578468095967572e-01  1.6410780309044004e-01  1.3248099367048824e-01  1.0074386114750038e-01  6.8877631226869615e-02  3.6886001406343398e-02  4.7589156274879902e-03  -2.7563191283056954e-02  -6.0110962872568750e-02  -9.2905893784676910e-02  -1.2603288789175046e-01  -1.5954280727657646e-01  -1.9285410396438968e-01  -2.2587444240527882e-01  -2.6134333501075879e-01  -2.9664187528386471e-01  -3.2114451210300210e-01  -3.5749203462828288e-01  -4.4026737224483797e-01  -4.7046557234492559e-01  -2.9799582981024386e-01  -3.9118189224301887e-02  2.0361017551779936e-02  3.2385825514232615e-02  2.1939051421074804e-01  3.1291867937423257e-01  3.8742256588298901e-01  3.9615076377827624e-01  3.6597198779862578e-01  3.2696081183673203e-01  2.9364151029748575e-01  2.6263262313884955e-01  2.3063601876943696e-01  1.9856771011276553e-01  1.6674421502386194e-01  1.3485506343514123e-01  1.0289641026478892e-01  7.0909934665720126e-02  3.8859976130846741e-02  6.6736453096092113e-03  -2.5688185522963917e-02  -5.8265453260569970e-02  -9.1085995676533887e-02  -1.2411945803011282e-01  -1.5753500035818019e-01  -1.9160918778068106e-01  -2.2524209440053955e-01  -2.5864528414775040e-01  -2.9604292788693631e-01  -3.2887119782674129e-01  -3.5100754354601249e-01  -4.1348683832352662e-01  -5.0034434942464656e-01  -4.1286174050525631e-01  -1.1337052653233587e-01  3.3500880836068482e-02  3.8844624611978525e-02  2.5824276827836401e-01  3.4654004720478482e-01  4.0989845099686051e-01  4.0554721903742785e-01  3.6961776091099646e-01  3.3090208815928335e-01  2.9815278206782597e-01  2.6627201897596581e-01  2.3366188910812141e-01  2.0141922060444278e-01  1.6931536919004786e-01  1.3718445617032840e-01  1.0511675193598558e-01  7.3077149425314805e-02  4.0975743943770862e-02  8.7712362661504506e-03  -2.3586437456801692e-02  -5.6146694600913399e-02  -8.8976279979378667e-02  -1.2213000705378591e-01  -1.5546459170278989e-01  -1.8930750424343842e-01  -2.2409960866891662e-01  -2.5785906759464627e-01  -2.9291661015615594e-01  -3.3209424059046927e-01  -3.5725155438870343e-01  -3.9321556689772091e-01  -4.9468321460472975e-01  -4.9900692376319222e-01  -2.0795261536914225e-01  4.1147304943814196e-02  4.1001967584355890e-02  2.8689097359642635e-01  3.7161834426014329e-01  4.2563526404023799e-01  4.1267115810740101e-01  3.7364957786303926e-01  3.3532189669905227e-01  3.0235936143246783e-01  2.6964775657855244e-01  2.3663865423755789e-01  2.0415207465196114e-01  1.7176777758213330e-01  1.3949295368579431e-01  1.0736534681749872e-01  7.5278534739361913e-02  4.3176992973479322e-02  1.1013140591801741e-02  -2.1281878098892520e-02  -5.3779893192319017e-02  -8.6527082066502961e-02  -1.1963643260644766e-01  -1.5321488018931545e-01  -1.8694811616681462e-01  -2.2160162442414555e-01  -2.5708727054649838e-01  -2.9107261607617402e-01  -3.3026198699312809e-01  -3.6519191368837306e-01  -3.8704928092944219e-01  -4.7369615571910922e-01  -5.5122008186943194e-01  -3.0864599729687231e-01  4.0068836395614219e-02  3.8688882330788731e-02  3.0408465253547795e-01  3.8882363073730081e-01  4.3598959299952911e-01  4.1841292245565975e-01  3.7778244658537447e-01  3.3957358562660617e-01  3.0607895773965599e-01  2.7274080299375053e-01  2.3941250398560729e-01  2.0666515210297548e-01  1.7407437828889802e-01  1.4171744267167516e-01  1.0955189556497991e-01  7.7478139765824752e-02  4.5449323722142651e-02  1.3390858055736825e-02  -1.8778813399679455e-02  -5.1138830776326194e-02  -8.3793774839460683e-02  -1.1676513855714607e-01  -1.5025926458955399e-01  -1.8435678079912304e-01  -2.1867442680360025e-01  -2.5472072062355988e-01  -2.9023309755892301e-01  -3.2690941085605779e-01  -3.6879436841012164e-01  -3.9086742558511356e-01  -4.5237026939801545e-01  -5.7484304682295106e-01  -4.0317957055952258e-01  3.0228425133942624e-02  3.2001282177145783e-02  3.0947776180949182e-01  3.9865422828690589e-01  4.4184109079105693e-01  4.2294690803580332e-01  3.8168913012077382e-01  3.4327590927151852e-01  3.0923979300132315e-01  2.7544757303110118e-01  2.4186243434617763e-01  2.0888533679251817e-01  1.7617001899232926e-01  1.4377073711090410e-01  1.1162559184317847e-01  7.9639623796504438e-02  4.7753648712955885e-02  1.5877478939027030e-02  -1.6082399471905814e-02  -4.8223673563354268e-02  -8.0647333859063086e-02  -1.1351003617082009e-01  -1.4678322305196276e-01  -1.8087642432956849e-01  -2.1552160950333618e-01  -2.5104765860633343e-01  -2.8844644813016090e-01  -3.2414633463496256e-01  -3.6753346063641773e-01  -3.9775224263227088e-01  -4.3712389957027475e-01  -5.7878033922384764e-01  -4.8458883047317675e-01  1.3812015746005041e-02  2.1739494815538014e-02  3.0288346924293608e-01  4.0160092758787569e-01  4.4333503422182569e-01  4.2635279614462096e-01  3.8502952824806164e-01  3.4632560569841131e-01  3.1173975047116237e-01  2.7768991302916568e-01  2.4388041561875937e-01  2.1074720921240686e-01  1.7796642232601323e-01  1.4558403524015640e-01  1.1352650218136873e-01  8.1706284080809891e-02  5.0045066339167860e-02  1.8442900283034466e-02  -1.3204636281158703e-02  -4.5021259104098904e-02  -7.7124861731234104e-02  -1.0965335441139373e-01  -1.4279967723132553e-01  -1.7652641342627326e-01  -2.1146359897124353e-01  -2.4674031222794576e-01  -2.8460692166297419e-01  -3.2168918090929405e-01  -3.6312758117026939e-01  -4.0271398577488227e-01  -4.2830512280154925e-01  -5.7075132972182319e-01  -5.5078805881617288e-01  -6.4186262093548054e-03  1.0114047089052336e-02  2.8384854733716114e-01  3.9788671488665323e-01  4.4026852551273188e-01  4.2845474300627334e-01  3.8769157285211270e-01  3.4869331514478874e-01  3.1354306346823990e-01  2.7937460072824094e-01  2.4540116253865296e-01  2.1215942270509894e-01  1.7938556755861512e-01  1.4707311318709318e-01  1.1518422240646320e-01  8.3612430355409675e-02  5.2272782735737204e-02  2.1056373762687080e-02  -1.0166665669492161e-02  -4.1517037140553319e-02  -7.3183540373983669e-02  -1.0524791571525570e-01  -1.3801570890918605e-01  -1.7146091279516210e-01  -2.0607404742187183e-01  -2.4167512553294024e-01  -2.7883575496718233e-01  -3.1811123091621196e-01  -3.5715474229018657e-01  -4.0339340758232006e-01  -4.2357935241960881e-01  -5.5580862734503100e-01  -6.0263876814801187e-01  -2.8200689028980510e-02  -7.3719897635416906e-04  2.5293166540086465e-01  3.8648904132288042e-01  4.3285888126317296e-01  4.2839738399102506e-01  3.8996585225666763e-01  3.5028461620615542e-01  3.1473344024049771e-01  2.8037960800733008e-01  2.4638571197326889e-01  2.1303129566686060e-01  1.8033858171670131e-01  1.4816021569284615e-01  1.1651199564603165e-01  8.5287935333687045e-02  5.4379461425074001e-02  2.3669599133584150e-02  -6.9850370369011466e-03  -3.7741316756558736e-02  -6.8770701169544951e-02  -1.0025391876055452e-01  -1.3239835206205006e-01  -1.6543207758562997e-01  -1.9947512492555466e-01  -2.3515522128296984e-01  -2.7164056138050890e-01  -3.1213472441236001e-01  -3.5021061164066092e-01  -3.9920442376288612e-01  -4.2013266856214848e-01  -5.3667313683175066e-01  -6.4211857087245816e-01  -5.0220477510024647e-02  -9.1645186463143319e-03  2.1191669489363016e-01  3.6573870326386954e-01  4.2115337794519031e-01  4.2515334847706793e-01  3.9186666865363917e-01  3.5133602495318811e-01  3.1528146240942811e-01  2.8071368102266825e-01  2.4670662354028711e-01  2.1331425345424582e-01  1.8068977704620012e-01  1.4874458593074175e-01  1.1741122323556745e-01  8.6634356564917900e-02  5.6283465346757204e-02  2.6221100508743555e-02  -3.7123153123850951e-03  -3.3694185745184950e-02  -6.3906167502694317e-02  -9.4584052011431788e-02  -1.2595214198403226e-01  -1.5822972028405710e-01  -1.9166400117458060e-01  -2.2680668367945261e-01  -2.6297649089208375e-01  -3.0335437813560595e-01  -3.4182521743473870e-01  -3.9054304217066715e-01  -4.1545298580548679e-01  -5.1460829544141617e-01  -6.7124200390248978e-01  -7.2062812907453241e-02  -1.4231510801733781e-02  1.6440320455532950e-01  3.3338487148182155e-01  4.0448604590382398e-01  4.1786329548449253e-01  3.9266506299307768e-01  3.5237148734755425e-01  3.1513728298752836e-01  2.8039432071660170e-01  2.4625855419710460e-01  2.1289547702538852e-01  1.8035630110196776e-01  1.4867963441582605e-01  1.1777616356789901e-01  8.7555508731443785e-02  5.7898529852567104e-02  2.8646057917272233e-02  -3.8731153742605168e-04  -2.9386401994015092e-02  -5.8597719709164206e-02  -8.8255838202136991e-02  -1.1855902382412009e-01  -1.4983977576328156e-01  -1.8239941344777330e-01  -2.1663692109021604e-01  -2.5230252552838284e-01  -2.9202338221530083e-01  -3.3088725081045856e-01  -3.7819319143905167e-01  -4.0746505063878258e-01  -4.9012627465109154e-01  -6.9164450016640733e-01  -9.3902923732417640e-02  -1.5353803423205973e-02  1.1489706598244004e-01  2.8861320916028371e-01  3.8074660549434342e-01  4.0599001795484885e-01  3.9082704390728396e-01  3.5362238488144249e-01  3.1464145624580386e-01  2.7926931137799960e-01  2.4500738957954074e-01  2.1157618473069817e-01  1.7918933621453098e-01  1.4782052603927032e-01  1.1743437862573045e-01  8.7910695599252908e-02  5.9103031112216022e-02  3.0835778350860717e-02  2.9028488819066766e-03  -2.4923247626722288e-02  -5.2884712416070213e-02  -8.1208871169151320e-02  -1.1018204788598616e-01  -1.4023353337119249e-01  -1.7153392506473067e-01  -2.0451457832902548e-01  -2.3934116859987811e-01  -2.7808897150612610e-01  -3.1668419037323658e-01  -3.6237270873376781e-01  -3.9490682825311912e-01  -4.6310953694437473e-01  -7.0465347024168179e-01  -1.1614514382948248e-01  -1.3458622891349850e-02  6.9995919068389464e-02  2.3193747013320343e-01  3.4659136235889598e-01  3.8841552554241549e-01  3.8467892876840415e-01  3.5404160027209403e-01  3.1442118970309901e-01  2.7732709620694113e-01  2.4274807057896394e-01  2.0923209284108277e-01  1.7695151751489038e-01  1.4597880864339757e-01  1.1621629375005224e-01  8.7540212319570210e-02  5.9768149745842380e-02  3.2695983814285838e-02  6.0864963040136418e-03  -2.0293303413686899e-02  -4.6717461664886259e-02  -7.3474581182459558e-02  -1.0089265578430646e-01  -1.2936306341490511e-01  -1.5889129983909422e-01  -1.9035206230690127e-01  -2.2397034708565522e-01  -2.6122830883903436e-01  -2.9884719025282108e-01  -3.4278809396613991e-01  -3.7703029643540681e-01  -4.3308449239842495e-01  -7.1136955983986072e-01  -1.3918937939466686e-01  -9.8024785909324921e-03  3.3405253117569346e-02  1.6959148447824790e-01  2.9904525386175218e-01  3.6292107597327466e-01  3.7273555218427568e-01  3.5131101452372199e-01  3.1418450513224089e-01  2.7508687816855543e-01  2.3921494267511442e-01  2.0557193164694568e-01  1.7345067652756402e-01  1.4292267252471605e-01  1.1392138002169255e-01  8.6264870365597310e-02  5.9735584429206560e-02  3.4086636037778208e-02  9.0515183008300637e-03  -1.5641550669617223e-02  -4.0293661342576330e-02  -6.5212691342416487e-02  -9.0673626823587650e-02  -1.1