<?xml version="1.0"?>
<VTKFile type="UnstructuredGrid"  version="0.1"  >
<UnstructuredGrid>
<Piece  NumberOfPoints="16641" NumberOfCells="16384">
<Points>
<DataArray  type="Float64"  NumberOfComponents="3"  format="ascii">0 0 0  0.0078125 0 0  0.015625 0 0  0.0234375 0 0  0.03125 0 0  0.0390625 0 0  0.046875 0 0  0.0546875 0 0  0.0625 0 0  0.0703125 0 0  0.078125 0 0  0.0859375 0 0  0.09375 0 0  0.1015625 0 0  0.109375 0 0  0.1171875 0 0  0.125 0 0  0.1328125 0 0  0.140625 0 0  0.1484375 0 0  0.15625 0 0  0.1640625 0 0  0.171875 0 0  0.1796875 0 0  0.1875 0 0  0.1953125 0 0  0.203125 0 0  0.2109375 0 0  0.21875 0 0  0.2265625 0 0  0.234375 0 0  0.2421875 0 0  0.25 0 0  0.2578125 0 0  0.265625 0 0  0.2734375 0 0  0.28125 0 0  0.2890625 0 0  0.296875 0 0  0.3046875 0 0  0.3125 0 0  0.3203125 0 0  0.328125 0 0  0.3359375 0 0  0.34375 0 0  0.3515625 0 0  0.359375 0 0  0.3671875 0 0  0.375 0 0  0.3828125 0 0  0.390625 0 0  0.3984375 0 0  0.40625 0 0  0.4140625 0 0  0.421875 0 0  0.4296875 0 0  0.4375 0 0  0.4453125 0 0  0.453125 0 0  0.4609375 0 0  0.46875 0 0  0.4765625 0 0  0.484375 0 0  0.4921875 0 0  0.5 0 0  0.5078125 0 0  0.515625 0 0  0.5234375 0 0  0.53125 0 0  0.5390625 0 0  0.546875 0 0  0.5546875 0 0  0.5625 0 0  0.5703125 0 0  0.578125 0 0  0.5859375 0 0  0.59375 0 0  0.6015625 0 0  0.609375 0 0  0.6171875 0 0  0.625 0 0  0.6328125 0 0  0.640625 0 0  0.6484375 0 0  0.65625 0 0  0.6640625 0 0  0.671875 0 0  0.6796875 0 0  0.6875 0 0  0.6953125 0 0  0.703125 0 0  0.7109375 0 0  0.71875 0 0  0.7265625 0 0  0.734375 0 0  0.7421875 0 0  0.75 0 0  0.7578125 0 0  0.765625 0 0  0.7734375 0 0  0.78125 0 0  0.7890625 0 0  0.796875 0 0  0.8046875 0 0  0.8125 0 0  0.8203125 0 0  0.828125 0 0  0.8359375 0 0  0.84375 0 0  0.8515625 0 0  0.859375 0 0  0.8671875 0 0  0.875 0 0  0.8828125 0 0  0.890625 0 0  0.8984375 0 0  0.90625 0 0  0.9140625 0 0  0.921875 0 0  0.9296875 0 0  0.9375 0 0  0.9453125 0 0  0.953125 0 0  0.9609375 0 0  0.96875 0 0  0.9765625 0 0  0.984375 0 0  0.9921875 0 0  1 0 0  0 0.0078125 0  0.0078125 0.0078125 0  0.015625 0.0078125 0  0.0234375 0.0078125 0  0.03125 0.0078125 0  0.0390625 0.0078125 0  0.046875 0.0078125 0  0.0546875 0.0078125 0  0.0625 0.0078125 0  0.0703125 0.0078125 0  0.078125 0.0078125 0  0.0859375 0.0078125 0  0.09375 0.0078125 0  0.1015625 0.0078125 0  0.109375 0.0078125 0  0.1171875 0.0078125 0  0.125 0.0078125 0  0.1328125 0.0078125 0  0.140625 0.0078125 0  0.1484375 0.0078125 0  0.15625 0.0078125 0  0.1640625 0.0078125 0  0.171875 0.0078125 0  0.1796875 0.0078125 0  0.1875 0.0078125 0  0.1953125 0.0078125 0  0.203125 0.0078125 0  0.2109375 0.0078125 0  0.21875 0.0078125 0  0.2265625 0.0078125 0  0.234375 0.0078125 0  0.2421875 0.0078125 0  0.25 0.0078125 0  0.2578125 0.0078125 0  0.265625 0.0078125 0  0.2734375 0.0078125 0  0.28125 0.0078125 0  0.2890625 0.0078125 0  0.296875 0.0078125 0  0.3046875 0.0078125 0  0.3125 0.0078125 0  0.3203125 0.0078125 0  0.328125 0.0078125 0  0.3359375 0.0078125 0  0.34375 0.0078125 0  0.3515625 0.0078125 0  0.359375 0.0078125 0  0.3671875 0.0078125 0  0.375 0.0078125 0  0.3828125 0.0078125 0  0.390625 0.0078125 0  0.3984375 0.0078125 0  0.40625 0.0078125 0  0.4140625 0.0078125 0  0.421875 0.0078125 0  0.4296875 0.0078125 0  0.4375 0.0078125 0  0.4453125 0.0078125 0  0.453125 0.0078125 0  0.4609375 0.0078125 0  0.46875 0.0078125 0  0.4765625 0.0078125 0  0.484375 0.0078125 0  0.4921875 0.0078125 0  0.5 0.0078125 0  0.5078125 0.0078125 0  0.515625 0.0078125 0  0.5234375 0.0078125 0  0.53125 0.0078125 0  0.5390625 0.0078125 0  0.546875 0.0078125 0  0.5546875 0.0078125 0  0.5625 0.0078125 0  0.5703125 0.0078125 0  0.578125 0.0078125 0  0.5859375 0.0078125 0  0.59375 0.0078125 0  0.6015625 0.0078125 0  0.609375 0.0078125 0  0.6171875 0.0078125 0  0.625 0.0078125 0  0.6328125 0.0078125 0  0.640625 0.0078125 0  0.6484375 0.0078125 0  0.65625 0.0078125 0  0.6640625 0.0078125 0  0.671875 0.0078125 0  0.6796875 0.0078125 0  0.6875 0.0078125 0  0.6953125 0.0078125 0  0.703125 0.0078125 0  0.7109375 0.0078125 0  0.71875 0.0078125 0  0.7265625 0.0078125 0  0.734375 0.0078125 0  0.7421875 0.0078125 0  0.75 0.0078125 0  0.7578125 0.0078125 0  0.765625 0.0078125 0  0.7734375 0.0078125 0  0.78125 0.0078125 0  0.7890625 0.0078125 0  0.796875 0.0078125 0  0.8046875 0.0078125 0  0.8125 0.0078125 0  0.8203125 0.0078125 0  0.828125 0.0078125 0  0.8359375 0.0078125 0  0.84375 0.0078125 0  0.8515625 0.0078125 0  0.859375 0.0078125 0  0.8671875 0.0078125 0  0.875 0.0078125 0  0.8828125 0.0078125 0  0.890625 0.0078125 0  0.8984375 0.0078125 0  0.90625 0.0078125 0  0.9140625 0.0078125 0  0.921875 0.0078125 0  0.9296875 0.0078125 0  0.9375 0.0078125 0  0.9453125 0.0078125 0  0.953125 0.0078125 0  0.9609375 0.0078125 0  0.96875 0.0078125 0  0.9765625 0.0078125 0  0.984375 0.0078125 0  0.9921875 0.0078125 0  1 0.0078125 0  0 0.015625 0  0.0078125 0.015625 0  0.015625 0.015625 0  0.0234375 0.015625 0  0.03125 0.015625 0  0.0390625 0.015625 0  0.046875 0.015625 0  0.0546875 0.015625 0  0.0625 0.015625 0  0.0703125 0.015625 0  0.078125 0.015625 0  0.0859375 0.015625 0  0.09375 0.015625 0  0.1015625 0.015625 0  0.109375 0.015625 0  0.1171875 0.015625 0  0.125 0.015625 0  0.1328125 0.015625 0  0.140625 0.015625 0  0.1484375 0.015625 0  0.15625 0.015625 0  0.1640625 0.015625 0  0.171875 0.015625 0  0.1796875 0.015625 0  0.1875 0.015625 0  0.1953125 0.015625 0  0.203125 0.015625 0  0.2109375 0.015625 0  0.21875 0.015625 0  0.2265625 0.015625 0  0.234375 0.015625 0  0.2421875 0.015625 0  0.25 0.015625 0  0.2578125 0.015625 0  0.265625 0.015625 0  0.2734375 0.015625 0  0.28125 0.015625 0  0.2890625 0.015625 0  0.296875 0.015625 0  0.3046875 0.015625 0  0.3125 0.015625 0  0.3203125 0.015625 0  0.328125 0.015625 0  0.3359375 0.015625 0  0.34375 0.015625 0  0.3515625 0.015625 0  0.359375 0.015625 0  0.3671875 0.015625 0  0.375 0.015625 0  0.3828125 0.015625 0  0.390625 0.015625 0  0.3984375 0.015625 0  0.40625 0.015625 0  0.4140625 0.015625 0  0.421875 0.015625 0  0.4296875 0.015625 0  0.4375 0.015625 0  0.4453125 0.015625 0  0.453125 0.015625 0  0.4609375 0.015625 0  0.46875 0.015625 0  0.4765625 0.015625 0  0.484375 0.015625 0  0.4921875 0.015625 0  0.5 0.015625 0  0.5078125 0.015625 0  0.515625 0.015625 0  0.5234375 0.015625 0  0.53125 0.015625 0  0.5390625 0.015625 0  0.546875 0.015625 0  0.5546875 0.015625 0  0.5625 0.015625 0  0.5703125 0.015625 0  0.578125 0.015625 0  0.5859375 0.015625 0  0.59375 0.015625 0  0.6015625 0.015625 0  0.609375 0.015625 0  0.6171875 0.015625 0  0.625 0.015625 0  0.6328125 0.015625 0  0.640625 0.015625 0  0.6484375 0.015625 0  0.65625 0.015625 0  0.6640625 0.015625 0  0.671875 0.015625 0  0.6796875 0.015625 0  0.6875 0.015625 0  0.6953125 0.015625 0  0.703125 0.015625 0  0.7109375 0.015625 0  0.71875 0.015625 0  0.7265625 0.015625 0  0.734375 0.015625 0  0.7421875 0.015625 0  0.75 0.015625 0  0.7578125 0.015625 0  0.765625 0.015625 0  0.7734375 0.015625 0  0.78125 0.015625 0  0.7890625 0.015625 0  0.796875 0.015625 0  0.8046875 0.015625 0  0.8125 0.015625 0  0.8203125 0.015625 0  0.828125 0.015625 0  0.8359375 0.015625 0  0.84375 0.015625 0  0.8515625 0.015625 0  0.859375 0.015625 0  0.8671875 0.015625 0  0.875 0.015625 0  0.8828125 0.015625 0  0.890625 0.015625 0  0.8984375 0.015625 0  0.90625 0.015625 0  0.9140625 0.015625 0  0.921875 0.015625 0  0.9296875 0.015625 0  0.9375 0.015625 0  0.9453125 0.015625 0  0.953125 0.015625 0  0.9609375 0.015625 0  0.96875 0.015625 0  0.9765625 0.015625 0  0.984375 0.015625 0  0.9921875 0.015625 0  1 0.015625 0  0 0.0234375 0  0.0078125 0.0234375 0  0.015625 0.0234375 0  0.0234375 0.0234375 0  0.03125 0.0234375 0  0.0390625 0.0234375 0  0.046875 0.0234375 0  0.0546875 0.0234375 0  0.0625 0.0234375 0  0.0703125 0.0234375 0  0.078125 0.0234375 0  0.0859375 0.0234375 0  0.09375 0.0234375 0  0.1015625 0.0234375 0  0.109375 0.0234375 0  0.1171875 0.0234375 0  0.125 0.0234375 0  0.1328125 0.0234375 0  0.140625 0.0234375 0  0.1484375 0.0234375 0  0.15625 0.0234375 0  0.1640625 0.0234375 0  0.171875 0.0234375 0  0.1796875 0.0234375 0  0.1875 0.0234375 0  0.1953125 0.0234375 0  0.203125 0.0234375 0  0.2109375 0.0234375 0  0.21875 0.0234375 0  0.2265625 0.0234375 0  0.234375 0.0234375 0  0.2421875 0.0234375 0  0.25 0.0234375 0  0.2578125 0.0234375 0  0.265625 0.0234375 0  0.2734375 0.0234375 0  0.28125 0.0234375 0  0.2890625 0.0234375 0  0.296875 0.0234375 0  0.3046875 0.0234375 0  0.3125 0.0234375 0  0.3203125 0.0234375 0  0.328125 0.0234375 0  0.3359375 0.0234375 0  0.34375 0.0234375 0  0.3515625 0.0234375 0  0.359375 0.0234375 0  0.3671875 0.0234375 0  0.375 0.0234375 0  0.3828125 0.0234375 0  0.390625 0.0234375 0  0.3984375 0.0234375 0  0.40625 0.0234375 0  0.4140625 0.0234375 0  0.421875 0.0234375 0  0.4296875 0.0234375 0  0.4375 0.0234375 0  0.4453125 0.0234375 0  0.453125 0.0234375 0  0.4609375 0.0234375 0  0.46875 0.0234375 0  0.4765625 0.0234375 0  0.484375 0.0234375 0  0.4921875 0.0234375 0  0.5 0.0234375 0  0.5078125 0.0234375 0  0.515625 0.0234375 0  0.5234375 0.0234375 0  0.53125 0.0234375 0  0.5390625 0.0234375 0  0.546875 0.0234375 0  0.5546875 0.0234375 0  0.5625 0.0234375 0  0.5703125 0.0234375 0  0.578125 0.0234375 0  0.5859375 0.0234375 0  0.59375 0.0234375 0  0.6015625 0.0234375 0  0.609375 0.0234375 0  0.6171875 0.0234375 0  0.625 0.0234375 0  0.6328125 0.0234375 0  0.640625 0.0234375 0  0.6484375 0.0234375 0  0.65625 0.0234375 0  0.6640625 0.0234375 0  0.671875 0.0234375 0  0.6796875 0.0234375 0  0.6875 0.0234375 0  0.6953125 0.0234375 0  0.703125 0.0234375 0  0.7109375 0.0234375 0  0.71875 0.0234375 0  0.7265625 0.0234375 0  0.734375 0.0234375 0  0.7421875 0.0234375 0  0.75 0.0234375 0  0.7578125 0.0234375 0  0.765625 0.0234375 0  0.7734375 0.0234375 0  0.78125 0.0234375 0  0.7890625 0.0234375 0  0.796875 0.0234375 0  0.8046875 0.0234375 0  0.8125 0.0234375 0  0.8203125 0.0234375 0  0.828125 0.0234375 0  0.8359375 0.0234375 0  0.84375 0.0234375 0  0.8515625 0.0234375 0  0.859375 0.0234375 0  0.8671
[...]
<PointData  Scalars="u_sol"> 
<DataArray  type="Float64"  Name="u_sol"  format="ascii">1.8905045396454251e-06  -1.0227518772350595e-05  -2.1806171483981259e-05  -2.3689051959472125e-05  -1.8449594021599554e-05  -7.5174926522895612e-06  7.3187930779147519e-06  2.4417956047706365e-05  4.2086642303041832e-05  5.8815415043867993e-05  7.3394707799627267e-05  8.5054635134980459e-05  9.3500822168657708e-05  9.8891205786911111e-05  1.0174910170308322e-04  1.0285229547368168e-04  1.0311830794085032e-04  1.0350610005504541e-04  1.0493920534539410e-04  1.0824822353404834e-04  1.1412665025784727e-04  1.2309598185611468e-04  1.3548190869342014e-04  1.5141040099262001e-04  1.7083357855421521e-04  1.9359164242452377e-04  2.1950407003287463e-04  2.4846791201561179e-04  2.8054096641594176e-04  3.1597905381941646e-04  3.5521574556770461e-04  3.9879247396431758e-04  4.4726798024349038e-04  5.0112392561615622e-04  5.6072662144356371e-04  6.2629395892943715e-04  6.9788466325580191e-04  7.7532842956460387e-04  8.5816283752792883e-04  9.4563001398311364e-04  1.0365855660125168e-03  1.1295843849470583e-03  1.2227183219177676e-03  1.3135212239083836e-03  1.3991487022324883e-03  1.4762244251426732e-03  1.5407688498195046e-03  1.5886681934300713e-03  1.6157230946312229e-03  1.6175894537943489e-03  1.5900944805081964e-03  1.5293987898792878e-03  1.4322350584504138e-03  1.2961163035964407e-03  1.1195413326025951e-03  9.0216087611660184e-04  6.4490596244301697e-04  3.5006254833734487e-04  2.1307180151673189e-05  -3.3631715540927251e-04  -7.1643024573384690e-04  -1.1114559421811102e-03  -1.5126212398295829e-03  -1.9103556880658776e-03  -2.2941554901507915e-03  -2.6510575624474134e-03  -2.9714417327186726e-03  -3.2466927764909881e-03  -3.4630336666067814e-03  -3.6080183096491632e-03  -3.6714647362041928e-03  -3.6443800598204134e-03  -3.5203578686649893e-03  -3.2958574930068455e-03  -2.9709610353217631e-03  -2.5497753813070894e-03  -2.0407634172622167e-03  -1.4567536772492715e-03  -8.1471213843986709e-04  -1.3516582509562713e-04  5.5881873551177029e-04  1.2408195765767564e-03  1.8870576991820325e-03  2.4785746127100106e-03  2.9940110494943752e-03  3.4139875247342073e-03  3.7278018806538686e-03  3.9313183155787025e-03  4.0250494211236335e-03  4.0146239378193831e-03  3.9100735079515333e-03  3.7248519470175095e-03  3.4742643475328258e-03  3.1760488593706887e-03  2.8458406240483383e-03  2.4965063605692089e-03  2.1428321732823710e-03  1.7979590658255171e-03  1.4714620070760175e-03  1.1710008868992009e-03  9.0229496547127226e-04  6.6840879135323088e-04  4.7045429259887214e-04  3.0775010413061312e-04  1.7808997258025769e-04  7.8240563531719793e-05  4.3018666708084843e-06  -4.7877520755172399e-05  -8.2451162677393258e-05  -1.0327087179173977e-04  -1.1370936360447219e-04  -1.1662467275933987e-04  -1.1433256637666928e-04  -1.0864913658780317e-04  -1.0095334896974734e-04  -9.2255552191055634e-05  -8.3277111323046643e-05  -7.4508981886327411e-05  -6.6268007398474543e-05  -5.8727456919101495e-05  -5.1935310648616318e-05  -4.5796114156771411e-05  -4.0077287044874180e-05  -3.4339864349227938e-05  -2.8023294459055398e-05  -2.0375516409295612e-05  -1.1070501182157648e-05  -1.3389546654759398e-06  8.3187640698099554e-07  1.2287322780994139e-06  -1.1105253504441856e-05  4.6714915788973823e-05  2.3109619213790660e-04  5.4404581767086531e-04  9.6968297944628919e-04  1.4806314638573241e-03  2.0440616355457296e-03  2.6254151619121936e-03  3.1920276508272897e-03  3.7161896871907023e-03  4.1773987644043668e-03  4.5635829655658053e-03  4.8712489634722168e-03  5.1046950805938365e-03  5.2745276218980688e-03  5.3957630922953472e-03  5.4857682237027892e-03  5.5622316781552958e-03  5.6412992460170503e-03  5.7359664110649949e-03  5.8548180163107647e-03  6.0012194465728797e-03  6.1730662358423878e-03  6.3631589069982454e-03  6.5601650449846139e-03  6.7499866333898019e-03  6.9172164567723547e-03  7.0463011084212551e-03  7.1221139512782066e-03  7.1298200208734916e-03  7.0541573837939620e-03  6.8784405952532724e-03  6.5836643217460173e-03  6.1479219280699072e-03  5.5463131515088269e-03  4.7512497810423956e-03  3.7331122184851391e-03  2.4610274347016976e-03  9.0365801970273510e-04  -9.6974408871383438e-04  -3.1882914553109185e-03  -5.7779189121683772e-03  -8.7597852174332875e-03  -1.2148918648717961e-02  -1.5952566462621498e-02  -2.0168814186101724e-02  -2.4785824418378760e-02  -2.9781048625096222e-02  -3.5120797274245823e-02  -4.0760526287744417e-02  -4.6645424812762605e-02  -5.2711465809551383e-02  -5.8886757747475107e-02  -6.5093127792317226e-02  -7.1247803120681227e-02  -7.7265089537151985e-02  -8.3057949300904405e-02  -8.8539428265416761e-02  -9.3623888252507489e-02  -9.8228080712420729e-02  -1.0227201955619730e-01  -1.0567988369782517e-01  -1.0838060216910270e-01  -1.1030895103220875e-01  -1.1140752879150367e-01  -1.1162221247191637e-01  -1.1090646991206717e-01  -1.0922849138949912e-01  -1.0656695250650459e-01  -1.0291280800165670e-01  -9.8272097961502727e-02  -9.2666838122800965e-02  -8.6136892587590802e-02  -7.8740989021504393e-02  -7.0557586215752199e-02  -6.1685027044653687e-02  -5.2241000845775973e-02  -4.2361068764958536e-02  -3.2196239593568293e-02  -2.1909617931305997e-02  -1.1670583748843031e-02  -1.6531615579196916e-03  7.9693727976870420e-03  1.7036767994833148e-02  2.5404727785941137e-02  3.2946117019151608e-02  3.9557144360210433e-02  4.5161440723920782e-02  4.9711083514953174e-02  5.3186728289880421e-02  5.5596364216293395e-02  5.6973547258918511e-02  5.7372840191613199e-02  5.6869506358499675e-02  5.5555822563779104e-02  5.3532332932501488e-02  5.0907424130012570e-02  4.7796936096892902e-02  4.4319286878053504e-02  4.0591713288545210e-02  3.6728156991532340e-02  3.2835222206045830e-02  2.9008778683388352e-02  2.5331059551319843e-02  2.1868208577740217e-02  1.8669076561856054e-02  1.5765131145394504e-02  1.3171648620818677e-02  1.0889764445709124e-02  8.9091776774526763e-03  7.2111587999732800e-03  5.7714257020380095e-03  4.5627095936592059e-03  3.5568377252837903e-03  2.7262946983988095e-03  2.0453290298632636e-03  1.4906714194504744e-03  1.0420096645212850e-03  6.8229771821829289e-04  3.9796386858045022e-04  1.7900179874235403e-04  1.8890034230217612e-05  -8.5927181601067333e-05  -1.3724245346178520e-04  -1.3767202935090203e-04  -9.5617456886210698e-05  -3.2214260554424438e-05  6.0246510191860207e-06  -7.8953637235080551e-06  3.8574356617454100e-05  2.3146804215089576e-04  6.1495126260445541e-04  1.1917318467375704e-03  1.9387604495872594e-03  2.8151974338427158e-03  3.7706933825715125e-03  4.7518408518278758e-03  5.7079014047892685e-03  6.5954530684119370e-03  7.3817547254864443e-03  8.0466049755273297e-03  8.5826904305520077e-03  8.9945808524510371e-03  9.2966634900024329e-03  9.5103614994495184e-03  9.6609764072421341e-03  9.7744487262386593e-03  9.8742764608032944e-03  9.9787982033462935e-03  1.0099035744021736e-02  1.0237291017858099e-02  1.0386666091886345e-02  1.0531578078704399e-02  1.0649172373380603e-02  1.0711319944296142e-02  1.0686704102982876e-02  1.0542464277290001e-02  1.0244975454291143e-02  9.7596528212358473e-03  9.0499956181433784e-03  8.0763653014071426e-03  6.7950568583652659e-03  5.1581642183992906e-03  3.1142018902795628e-03  6.0938717364978506e-04  -2.4106534421400724e-03  -5.9986343965405826e-03  -1.0202801427881230e-02  -1.5064038709760873e-02  -2.0612639457996240e-02  -2.6865404371011360e-02  -3.3822863337812752e-02  -4.1466732560587499e-02  -4.9758472469356531e-02  -5.8638713842759628e-02  -6.8027701624642750e-02  -7.7827132728455942e-02  -8.7923032938824086e-02  -9.8189341734970861e-02  -1.0849208089590437e-01  -1.1869360385048486e-01  -1.2865664218522735e-01  -1.3824785107999277e-01  -1.4734069144265158e-01  -1.5581756957369880e-01  -1.6357125357717570e-01  -1.7050564308699551e-01  -1.7653601763902771e-01  -1.8158889216488130e-01  -1.8560163441397942e-01  -1.8852188032040548e-01  -1.9030707688808662e-01  -1.9092358455475156e-01  -1.9034567635689567e-01  -1.8856118565948710e-01  -1.8556813705486933e-01  -1.8136954118713094e-01  -1.7597888249130261e-01  -1.6942010100069366e-01  -1.6172789538461457e-01  -1.5294929702784885e-01  -1.4314429168631318e-01  -1.3238697907796301e-01  -1.2076624309900166e-01  -1.0838624212162180e-01  -9.5366400288063563e-02  -8.1840855103825050e-02  -6.7957203389701890e-02  -5.3874497569246289e-02  -3.9761188631838862e-02  -2.5789827180093674e-02  -1.2133451433864646e-02  1.0354968497749452e-03  1.3551773178719660e-02  2.5262911092274545e-02  3.6031811012817098e-02  4.5739797272331399e-02  5.4289178089829866e-02  6.1604921044157934e-02  6.7635667456539955e-02  7.2353542578844326e-02  7.5755108088524717e-02  7.7858324685347619e-02  7.8702219451998748e-02  7.8351325914127148e-02  7.6892782454709582e-02  7.4430946258157035e-02  7.1088359107578200e-02  6.7006025864420102e-02  6.2338049942008936e-02  5.7247604103381325e-02  5.1900911781514639e-02  4.6459549533977351e-02  4.1072951471182950e-02  3.5871276822688321e-02  3.0960092860991668e-02  2.6417348716039211e-02  2.2293031428948847e-02  1.8611188503261506e-02  1.5373684126634247e-02  1.2564970514618442e-02  1.0157072855043905e-02  8.1142387019106886e-03  6.3968972244125280e-03  4.9647706910901333e-03  3.7792145723811519e-03  2.8048560347749903e-03  2.0107078629114507e-03  1.3708893360629972e-03  8.6497303138744397e-04  4.7786665245666597e-04  1.9905140817562590e-04  2.0679043169176014e-05  -6.5573868487883542e-05  -7.4505538073574973e-05  -3.1895420570414797e-05  5.8390423924025007e-06  -1.7680392958220129e-05  8.8670196510027681e-05  4.2277976209310208e-04  9.9976967322473894e-04  1.8108302643871539e-03  2.8228755767565790e-03  3.9843135286667256e-03  5.2327687658931315e-03  6.5027640688794701e-03  7.7325319237533299e-03  8.8694927317472198e-03  9.8740442169990891e-03  1.0721541308359924e-02  1.1402524978902928e-02  1.1921432039241706e-02  1.2294109046073120e-02  1.2544490354335695e-02  1.2700787739783944e-02  1.2791506446522754e-02  1.2841577648894325e-02  1.2868883129884483e-02  1.2881462481675914e-02  1.2875690317452013e-02  1.2835650506111039e-02  1.2733790654899527e-02  1.2532686536809369e-02  1.2187466102879621e-02  1.1648246946223668e-02  1.0861919718655343e-02  9.7728620486334759e-03  8.3226086874631632e-03  6.4490295906949992e-03  4.0857131068085372e-03  1.1620839497652818e-03  -2.3954859554532774e-03  -6.6612122240383405e-03  -1.1706256970469720e-02  -1.7594307907354646e-02  -2.4376863580780801e-02  -3.2088437645692219e-02  -4.0741585791701999e-02  -5.0322625264307454e-02  -6.0788319310203981e-02  -7.2064301008424064e-02  -8.4045718559627822e-02  -9.6599913445189353e-02  -1.0957129569300979e-01  -1.2278792309134448e-01  -1.3606898608025411e-01  -1.4923248089492508e-01  -1.6210231888385335e-01  -1.7451421061598243e-01  -1.8632003011808743e-01  -1.9739050828585811e-01  -2.0761636671285330e-01  -2.1690811692402864e-01  -2.2519484223094569e-01  -2.3242228947675306e-01  -2.3855057649304937e-01  -2.4355177034880740e-01  -2.4740753606303448e-01  -2.5010699515265822e-01  -2.5164493851865583e-01  -2.5202027893833151e-01  -2.5123543117797775e-01  -2.4929671357901226e-01  -2.4620832704931123e-01  -2.4197444723022093e-01  -2.3660504682081748e-01  -2.3011293533589708e-01  -2.2251545779378831e-01  -2.1383636199807329e-01  -2.0410705933354925e-01  -1.9336876546123105e-01  -1.8167417423694107e-01  -1.6908927541306362e-01  -1.5569476970380700e-01  -1.4158706014966591e-01  -1.2687856747357681e-01  -1.1169723172538568e-01  -9.6185087544587836e-02  -8.0495481955288203e-02  -6.4790640659992627e-02  -4.9237301480654715e-02  -3.4000794292617605e-02  -1.9241835518970268e-02  -5.1124490170839660e-03  8.2482218864262848e-03  2.0716373559749264e-02  3.2185067985540980e-02  4.2564609528089839e-02  5.1781965137930583e-02  5.9779987782078561e-02  6.6515427438307198e-02  7.1959703841606257e-02  7.6098069583946423e-02  7.8926360698677228e-02  8.0454415045907918e-02  8.0715118393303836e-02  7.9764949046408198e-02  7.7682982733158726e-02  7.4577300061699936e-02  7.0584714051396824e-02  6.5867582206721786e-02  6.0608468798646307e-02  5.5000584785150596e-02  4.9236488796432068e-02  4.3496065354705613e-02  3.7935953097418262e-02  3.2681930299273729e-02  2.7825174634851044e-02  2.3422430583356559e-02  1.9499352323105602e-02  1.6055931727665774e-02  1.3072813604329199e-02  1.0517538578907751e-02  8.3500936229480485e-03  6.5273977014284473e-03  5.0067755099378478e-03  3.7484967548665200e-03  2.7174791571089514e-03  1.8843152062688439e-03  1.2255920178296381e-03  7.2341782993472171e-04  3.6384884879349833e-04  1.3421058015059727e-04  1.8136280354493307e-05  -9.0267515999659869e-06  1.4588562045693640e-06  -2.6176249646591002e-05  1.3148698643737834e-04  5.9466628221997427e-04  1.3506496925275357e-03  2.3726360041020802e-03  3.6131066457685893e-03  5.0078198273493220e-03  6.4828625469317749e-03  7.9628078419080681e-03  9.3781107956655563e-03  1.0670895048738527e-02  1.1798655608434778e-02  1.2735821034405150e-02  1.3473383566677580e-02  1.4016962243632376e-02  1.4383706801496993e-02  1.4598421433831799e-02  1.4689232914199392e-02  1.4683089312536549e-02  1.4601365260852803e-02  1.4455899592386749e-02  1.4245829111135181e-02  1.3955598919009079e-02  1.3554451618348919e-02  1.2997451830377751e-02  1.2227765119605048e-02  1.1179543829318427e-02  9.7805604899690694e-03  7.9539241461412512e-03  5.6187477429148038e-03  2.6901049239061161e-03  -9.2107164905219348e-04  -5.3070845956397789e-03  -1.0560634300210002e-02  -1.6770070276454687e-02  -2.4013496296978160e-02  -3.2352116062505744e-02  -4.1823109541702180e-02  -5.2432646247509158e-02  -6.4149931021738299e-02  -7.6903391022969239e-02  -9.0579606631539133e-02  -1.0502575182093744e-01  -1.2005565970406595e-01  -1.3545897363427517e-01  -1.5101247112394137e-01  -1.6649205838285497e-01  -1.8168400731348106e-01  -1.9639422636362258e-01  -2.1045480299178643e-01  -2.2372754883968529e-01  -2.3610473500720766e-01  -2.4750749508071132e-01  -2.5788256562799400e-01  -2.6719803354933785e-01  -2.7543870117657721e-01  -2.8260153757005102e-01  -2.8869154498998734e-01  -2.9371823023932436e-01  -2.9769276024032987e-01  -3.0062580159035029e-01  -3.0252599447309914e-01  -3.0339894782840576e-01  -3.0324681822643157e-01  -3.0206795140747794e-01  -2.9985571195813365e-01  -2.9660330114415440e-01  -2.9230455412642908e-01  -2.8695118922364049e-01  -2.8053634941500127e-01  -2.7305591676622165e-01  -2.6451009724605751e-01  -2.5490580644813271e-01  -2.4425876836901009e-01  -2.3259607955732253e-01  -2.1995861067259123e-01  -2.0640334301413957e-01  -1.9200530097125595e-01  -1.7685886909846191e-01  -1.6107820273895149e-01  -1.4479644509096981e-01  -1.2816387028828649e-01  -1.1134413008837922e-01  -9.4509463421930409e-02  -7.7835249124626832e-02  -6.1493260918288363e-02  -4.5645718134726621e-02  -3.0439927446241230e-02  -1.6004045328505852e-02  -2.4449396840337829e-03  1.0151996653318934e-02  2.1721152456062879e-02  3.2213223511504227e-02  4.1591364365283816e-02  4.9825884275219910e-02  5.6890812796346335e-02  6.2763457357183527e-02  6.7423274179113840e-02  7.0847156963494445e-02  7.3018530555484545e-02  7.3940256229761719e-02  7.3635750918566473e-02  7.2158055674788557e-02  6.9597469487942237e-02  6.6082653501793931e-02  6.1778404580762447e-02  5.6877209779018452e-02  5.1586469836231982e-02  4.6113150431406125e-02  4.0648628963258555e-02  3.5356349852278715e-02  3.0364027894760986e-02  2.5760928792303864e-02  2.1599654222196285e-02  1.7901143474983738e-02  1.4661372687057438e-02  1.1858419713378936e-02  9.4590625174988709e-03  7.4242926427585633e-03  5.7136355251805214e-03  4.2883988711325156e-03  3.1138839144075267e-03  2.1607002968982076e-03  1.4052063918038439e-03  8.2895809110386802e-04  4.1716973512576230e-04  1.5537943368977821e-04  2.5690110563332198e-05  -5.3353985901628217e-06  -3.3364352397138103e-05  1.6726917885225400e-04  7.4571493308758579e-04  1.6669282551133478e-03  2.8834283963181380e-03  4.3291204075280535e-03  5.9234827637130580e-03  7.5789238009612483e-03  9.2095968121455058e-03  1.0739277160712674e-02  1.2107146793415950e-02  1.3270932165272007e-02  1.4207479414285329e-02  1.4911206065083681e-02  1.5391016244720127e-02  1.5666226471033350e-02  1.5761921603807471e-02  1.5704033391795887e-02  1.5514363620121286e-02  1.5205813567437996e-02  1.4778153462234539e-02  1.4214792559948505e-02  1.3481042204439367e-02  1.2524202644672945e-02  1.1275455243912312e-02  9.6530023761303690e-03  7.5655430138666848e-03  4.9152170644723835e-03  1.5994110275374344e-03  -2.4885064382446464e-03  -7.4582482591246824e-03  -1.3419898089456423e-02  -2.0478884728506064e-02  -2.8728837443531902e-02  -3.8242633303598166e-02  -4.9062521433630629e-02  -6.1190757692280461e-02  -7.4582029652357773e-02  -8.9138840068364505e-02  -1.0471109297750347e-01  -1.2110076995584119e-01  -1.3807186974559052e-01  -1.5536460518766917e-01  -1.7271197721971243e-01  -1.8985643756350856e-01  -2.0656436035654646e-01  -2.2263665703994640e-01  -2.3791471441099715e-01  -2.5228172464702536e-01  -2.6566011984917764e-01  -2.7800624703827576e-01  -2.8930351758239714e-01  -2.9955514020938839e-01  -3.0877728025920925e-01  -3.1699318768639895e-01  -3.2422854517033456e-01  -3.3050807141158500e-01  -3.3585325855743559e-01  -3.4028104557382088e-01  -3.4380320425079669e-01  -3.4642622564570019e-01  -3.4815152719812237e-01  -3.4897587932276086e-01  -3.4889186382005444e-01  -3.4788843894734689e-01  -3.4595272728330712e-01  -3.4306840716653109e-01  -3.3921554606273457e-01  -3.3437336000888029e-01  -3.2852015654250505e-01  -3.2163459683021522e-01  -3.1369736857979719e-01  -3.0469293313056273e-01  -2.9461195279216951e-01  -2.8345395741313273e-01  -2.7123047304436687e-01  -2.5796832995078678e-01  -2.4371301787311039e-01  -2.2853174820697200e-01  -2.1251584823191905e-01  -1.9578208251409016e-01  -1.7847224777006956e-01  -1.6075103195252832e-01  -1.4280178532997470e-01  -1.2482007427121240e-01  -1.0700569226945743e-01  -8.9553447116344609e-02  -7.2644100260274957e-02  -5.6436364181067782e-02  -4.1060831032961098e-02  -2.6616805293442826e-02  -1.3172394084291369e-02  -7.6766455775069973e-04  1.0579270190835483e-02  2.0864972547547572e-02  3.0092104841028210e-02  3.8261080556296803e-02  4.5363624985057652e-02  5.1384918308407787e-02  5.6298200229770917e-02  6.0063545593097720e-02  6.2645936340752148e-02  6.4023746082872424e-02  6.4198597800840584e-02  6.3209166359285071e-02  6.1138180511535724e-02  5.8114693092920548e-02  5.4308825798807456e-02  4.9919803758053313e-02  4.5159441756188468e-02  4.0234240173060466e-02  3.5329467536759349e-02  3.0597824813460472e-02  2.6153774965590432e-02  2.2073258683243040e-02  1.8397517461259463e-02  1.5139371002090984e-02  1.2290328954413343e-02  9.8275320263773135e-03  7.7198080428344043e-03  5.9325385451950959e-03  4.4314536454976294e-03  3.1853943925624962e-03  2.1681756963231194e-03  1.3595815852007771e-03  7.4546517751142066e-04  3.1662552950871927e-04  6.6647178869815973e-05  -1.3389695914161902e-05  -3.9872229140717970e-05  1.9958002938901386e-04  8.8575850600142712e-04  1.9645842651518767e-03  3.3663096446150055e-03  5.0025203173314527e-03  6.7723591326584792e-03  8.5715589520133743e-03  1.0302535986810524e-02  1.1882865809367914e-02  1.3250773309119560e-02  1.4367166493756498e-02  1.5214573324539750e-02  1.5793781130972441e-02  1.6119066108804640e-02  1.6212734320509483e-02  1.6099439327620528e-02  1.5800518889261216e-02  1.5328526609530768e-02  1.4682177622875658e-02  1.3842128836227385e-02  1.2768178419700243e-02  1.1398455252749943e-02  9.6508734750595394e-03  7.4265535947118672e-03  4.6143870213510062e-03  1.0954474186542927e-03  -3.2538677549173215e-03  -8.5596438063966288e-03  -1.4947806306753750e-02  -2.2539792557192836e-02  -3.1445369872525775e-02  -4.1752089789081390e-02  -5.3512629451943558e-02  -6.6732353290610391e-02  -8.1359143318763136e-02  -9.7277303473293317e-02  -1.1430728696293788e-01  -1.3221242024856578e-01  -1.5071263959964062e-01  -1.6950380064116513e-01  -1.882797