<?xml version="1.0"?>
<VTKFile type="UnstructuredGrid"  version="0.1"  >
<UnstructuredGrid>
<Piece  NumberOfPoints="16641" NumberOfCells="16384">
<Points>
<DataArray  type="Float64"  NumberOfComponents="3"  format="ascii">0 0 0  0.0078125 0 0  0.015625 0 0  0.0234375 0 0  0.03125 0 0  0.0390625 0 0  0.046875 0 0  0.0546875 0 0  0.0625 0 0  0.0703125 0 0  0.078125 0 0  0.0859375 0 0  0.09375 0 0  0.1015625 0 0  0.109375 0 0  0.1171875 0 0  0.125 0 0  0.1328125 0 0  0.140625 0 0  0.1484375 0 0  0.15625 0 0  0.1640625 0 0  0.171875 0 0  0.1796875 0 0  0.1875 0 0  0.1953125 0 0  0.203125 0 0  0.2109375 0 0  0.21875 0 0  0.2265625 0 0  0.234375 0 0  0.2421875 0 0  0.25 0 0  0.2578125 0 0  0.265625 0 0  0.2734375 0 0  0.28125 0 0  0.2890625 0 0  0.296875 0 0  0.3046875 0 0  0.3125 0 0  0.3203125 0 0  0.328125 0 0  0.3359375 0 0  0.34375 0 0  0.3515625 0 0  0.359375 0 0  0.3671875 0 0  0.375 0 0  0.3828125 0 0  0.390625 0 0  0.3984375 0 0  0.40625 0 0  0.4140625 0 0  0.421875 0 0  0.4296875 0 0  0.4375 0 0  0.4453125 0 0  0.453125 0 0  0.4609375 0 0  0.46875 0 0  0.4765625 0 0  0.484375 0 0  0.4921875 0 0  0.5 0 0  0.5078125 0 0  0.515625 0 0  0.5234375 0 0  0.53125 0 0  0.5390625 0 0  0.546875 0 0  0.5546875 0 0  0.5625 0 0  0.5703125 0 0  0.578125 0 0  0.5859375 0 0  0.59375 0 0  0.6015625 0 0  0.609375 0 0  0.6171875 0 0  0.625 0 0  0.6328125 0 0  0.640625 0 0  0.6484375 0 0  0.65625 0 0  0.6640625 0 0  0.671875 0 0  0.6796875 0 0  0.6875 0 0  0.6953125 0 0  0.703125 0 0  0.7109375 0 0  0.71875 0 0  0.7265625 0 0  0.734375 0 0  0.7421875 0 0  0.75 0 0  0.7578125 0 0  0.765625 0 0  0.7734375 0 0  0.78125 0 0  0.7890625 0 0  0.796875 0 0  0.8046875 0 0  0.8125 0 0  0.8203125 0 0  0.828125 0 0  0.8359375 0 0  0.84375 0 0  0.8515625 0 0  0.859375 0 0  0.8671875 0 0  0.875 0 0  0.8828125 0 0  0.890625 0 0  0.8984375 0 0  0.90625 0 0  0.9140625 0 0  0.921875 0 0  0.9296875 0 0  0.9375 0 0  0.9453125 0 0  0.953125 0 0  0.9609375 0 0  0.96875 0 0  0.9765625 0 0  0.984375 0 0  0.9921875 0 0  1 0 0  0 0.0078125 0  0.0078125 0.0078125 0  0.015625 0.0078125 0  0.0234375 0.0078125 0  0.03125 0.0078125 0  0.0390625 0.0078125 0  0.046875 0.0078125 0  0.0546875 0.0078125 0  0.0625 0.0078125 0  0.0703125 0.0078125 0  0.078125 0.0078125 0  0.0859375 0.0078125 0  0.09375 0.0078125 0  0.1015625 0.0078125 0  0.109375 0.0078125 0  0.1171875 0.0078125 0  0.125 0.0078125 0  0.1328125 0.0078125 0  0.140625 0.0078125 0  0.1484375 0.0078125 0  0.15625 0.0078125 0  0.1640625 0.0078125 0  0.171875 0.0078125 0  0.1796875 0.0078125 0  0.1875 0.0078125 0  0.1953125 0.0078125 0  0.203125 0.0078125 0  0.2109375 0.0078125 0  0.21875 0.0078125 0  0.2265625 0.0078125 0  0.234375 0.0078125 0  0.2421875 0.0078125 0  0.25 0.0078125 0  0.2578125 0.0078125 0  0.265625 0.0078125 0  0.2734375 0.0078125 0  0.28125 0.0078125 0  0.2890625 0.0078125 0  0.296875 0.0078125 0  0.3046875 0.0078125 0  0.3125 0.0078125 0  0.3203125 0.0078125 0  0.328125 0.0078125 0  0.3359375 0.0078125 0  0.34375 0.0078125 0  0.3515625 0.0078125 0  0.359375 0.0078125 0  0.3671875 0.0078125 0  0.375 0.0078125 0  0.3828125 0.0078125 0  0.390625 0.0078125 0  0.3984375 0.0078125 0  0.40625 0.0078125 0  0.4140625 0.0078125 0  0.421875 0.0078125 0  0.4296875 0.0078125 0  0.4375 0.0078125 0  0.4453125 0.0078125 0  0.453125 0.0078125 0  0.4609375 0.0078125 0  0.46875 0.0078125 0  0.4765625 0.0078125 0  0.484375 0.0078125 0  0.4921875 0.0078125 0  0.5 0.0078125 0  0.5078125 0.0078125 0  0.515625 0.0078125 0  0.5234375 0.0078125 0  0.53125 0.0078125 0  0.5390625 0.0078125 0  0.546875 0.0078125 0  0.5546875 0.0078125 0  0.5625 0.0078125 0  0.5703125 0.0078125 0  0.578125 0.0078125 0  0.5859375 0.0078125 0  0.59375 0.0078125 0  0.6015625 0.0078125 0  0.609375 0.0078125 0  0.6171875 0.0078125 0  0.625 0.0078125 0  0.6328125 0.0078125 0  0.640625 0.0078125 0  0.6484375 0.0078125 0  0.65625 0.0078125 0  0.6640625 0.0078125 0  0.671875 0.0078125 0  0.6796875 0.0078125 0  0.6875 0.0078125 0  0.6953125 0.0078125 0  0.703125 0.0078125 0  0.7109375 0.0078125 0  0.71875 0.0078125 0  0.7265625 0.0078125 0  0.734375 0.0078125 0  0.7421875 0.0078125 0  0.75 0.0078125 0  0.7578125 0.0078125 0  0.765625 0.0078125 0  0.7734375 0.0078125 0  0.78125 0.0078125 0  0.7890625 0.0078125 0  0.796875 0.0078125 0  0.8046875 0.0078125 0  0.8125 0.0078125 0  0.8203125 0.0078125 0  0.828125 0.0078125 0  0.8359375 0.0078125 0  0.84375 0.0078125 0  0.8515625 0.0078125 0  0.859375 0.0078125 0  0.8671875 0.0078125 0  0.875 0.0078125 0  0.8828125 0.0078125 0  0.890625 0.0078125 0  0.8984375 0.0078125 0  0.90625 0.0078125 0  0.9140625 0.0078125 0  0.921875 0.0078125 0  0.9296875 0.0078125 0  0.9375 0.0078125 0  0.9453125 0.0078125 0  0.953125 0.0078125 0  0.9609375 0.0078125 0  0.96875 0.0078125 0  0.9765625 0.0078125 0  0.984375 0.0078125 0  0.9921875 0.0078125 0  1 0.0078125 0  0 0.015625 0  0.0078125 0.015625 0  0.015625 0.015625 0  0.0234375 0.015625 0  0.03125 0.015625 0  0.0390625 0.015625 0  0.046875 0.015625 0  0.0546875 0.015625 0  0.0625 0.015625 0  0.0703125 0.015625 0  0.078125 0.015625 0  0.0859375 0.015625 0  0.09375 0.015625 0  0.1015625 0.015625 0  0.109375 0.015625 0  0.1171875 0.015625 0  0.125 0.015625 0  0.1328125 0.015625 0  0.140625 0.015625 0  0.1484375 0.015625 0  0.15625 0.015625 0  0.1640625 0.015625 0  0.171875 0.015625 0  0.1796875 0.015625 0  0.1875 0.015625 0  0.1953125 0.015625 0  0.203125 0.015625 0  0.2109375 0.015625 0  0.21875 0.015625 0  0.2265625 0.015625 0  0.234375 0.015625 0  0.2421875 0.015625 0  0.25 0.015625 0  0.2578125 0.015625 0  0.265625 0.015625 0  0.2734375 0.015625 0  0.28125 0.015625 0  0.2890625 0.015625 0  0.296875 0.015625 0  0.3046875 0.015625 0  0.3125 0.015625 0  0.3203125 0.015625 0  0.328125 0.015625 0  0.3359375 0.015625 0  0.34375 0.015625 0  0.3515625 0.015625 0  0.359375 0.015625 0  0.3671875 0.015625 0  0.375 0.015625 0  0.3828125 0.015625 0  0.390625 0.015625 0  0.3984375 0.015625 0  0.40625 0.015625 0  0.4140625 0.015625 0  0.421875 0.015625 0  0.4296875 0.015625 0  0.4375 0.015625 0  0.4453125 0.015625 0  0.453125 0.015625 0  0.4609375 0.015625 0  0.46875 0.015625 0  0.4765625 0.015625 0  0.484375 0.015625 0  0.4921875 0.015625 0  0.5 0.015625 0  0.5078125 0.015625 0  0.515625 0.015625 0  0.5234375 0.015625 0  0.53125 0.015625 0  0.5390625 0.015625 0  0.546875 0.015625 0  0.5546875 0.015625 0  0.5625 0.015625 0  0.5703125 0.015625 0  0.578125 0.015625 0  0.5859375 0.015625 0  0.59375 0.015625 0  0.6015625 0.015625 0  0.609375 0.015625 0  0.6171875 0.015625 0  0.625 0.015625 0  0.6328125 0.015625 0  0.640625 0.015625 0  0.6484375 0.015625 0  0.65625 0.015625 0  0.6640625 0.015625 0  0.671875 0.015625 0  0.6796875 0.015625 0  0.6875 0.015625 0  0.6953125 0.015625 0  0.703125 0.015625 0  0.7109375 0.015625 0  0.71875 0.015625 0  0.7265625 0.015625 0  0.734375 0.015625 0  0.7421875 0.015625 0  0.75 0.015625 0  0.7578125 0.015625 0  0.765625 0.015625 0  0.7734375 0.015625 0  0.78125 0.015625 0  0.7890625 0.015625 0  0.796875 0.015625 0  0.8046875 0.015625 0  0.8125 0.015625 0  0.8203125 0.015625 0  0.828125 0.015625 0  0.8359375 0.015625 0  0.84375 0.015625 0  0.8515625 0.015625 0  0.859375 0.015625 0  0.8671875 0.015625 0  0.875 0.015625 0  0.8828125 0.015625 0  0.890625 0.015625 0  0.8984375 0.015625 0  0.90625 0.015625 0  0.9140625 0.015625 0  0.921875 0.015625 0  0.9296875 0.015625 0  0.9375 0.015625 0  0.9453125 0.015625 0  0.953125 0.015625 0  0.9609375 0.015625 0  0.96875 0.015625 0  0.9765625 0.015625 0  0.984375 0.015625 0  0.9921875 0.015625 0  1 0.015625 0  0 0.0234375 0  0.0078125 0.0234375 0  0.015625 0.0234375 0  0.0234375 0.0234375 0  0.03125 0.0234375 0  0.0390625 0.0234375 0  0.046875 0.0234375 0  0.0546875 0.0234375 0  0.0625 0.0234375 0  0.0703125 0.0234375 0  0.078125 0.0234375 0  0.0859375 0.0234375 0  0.09375 0.0234375 0  0.1015625 0.0234375 0  0.109375 0.0234375 0  0.1171875 0.0234375 0  0.125 0.0234375 0  0.1328125 0.0234375 0  0.140625 0.0234375 0  0.1484375 0.0234375 0  0.15625 0.0234375 0  0.1640625 0.0234375 0  0.171875 0.0234375 0  0.1796875 0.0234375 0  0.1875 0.0234375 0  0.1953125 0.0234375 0  0.203125 0.0234375 0  0.2109375 0.0234375 0  0.21875 0.0234375 0  0.2265625 0.0234375 0  0.234375 0.0234375 0  0.2421875 0.0234375 0  0.25 0.0234375 0  0.2578125 0.0234375 0  0.265625 0.0234375 0  0.2734375 0.0234375 0  0.28125 0.0234375 0  0.2890625 0.0234375 0  0.296875 0.0234375 0  0.3046875 0.0234375 0  0.3125 0.0234375 0  0.3203125 0.0234375 0  0.328125 0.0234375 0  0.3359375 0.0234375 0  0.34375 0.0234375 0  0.3515625 0.0234375 0  0.359375 0.0234375 0  0.3671875 0.0234375 0  0.375 0.0234375 0  0.3828125 0.0234375 0  0.390625 0.0234375 0  0.3984375 0.0234375 0  0.40625 0.0234375 0  0.4140625 0.0234375 0  0.421875 0.0234375 0  0.4296875 0.0234375 0  0.4375 0.0234375 0  0.4453125 0.0234375 0  0.453125 0.0234375 0  0.4609375 0.0234375 0  0.46875 0.0234375 0  0.4765625 0.0234375 0  0.484375 0.0234375 0  0.4921875 0.0234375 0  0.5 0.0234375 0  0.5078125 0.0234375 0  0.515625 0.0234375 0  0.5234375 0.0234375 0  0.53125 0.0234375 0  0.5390625 0.0234375 0  0.546875 0.0234375 0  0.5546875 0.0234375 0  0.5625 0.0234375 0  0.5703125 0.0234375 0  0.578125 0.0234375 0  0.5859375 0.0234375 0  0.59375 0.0234375 0  0.6015625 0.0234375 0  0.609375 0.0234375 0  0.6171875 0.0234375 0  0.625 0.0234375 0  0.6328125 0.0234375 0  0.640625 0.0234375 0  0.6484375 0.0234375 0  0.65625 0.0234375 0  0.6640625 0.0234375 0  0.671875 0.0234375 0  0.6796875 0.0234375 0  0.6875 0.0234375 0  0.6953125 0.0234375 0  0.703125 0.0234375 0  0.7109375 0.0234375 0  0.71875 0.0234375 0  0.7265625 0.0234375 0  0.734375 0.0234375 0  0.7421875 0.0234375 0  0.75 0.0234375 0  0.7578125 0.0234375 0  0.765625 0.0234375 0  0.7734375 0.0234375 0  0.78125 0.0234375 0  0.7890625 0.0234375 0  0.796875 0.0234375 0  0.8046875 0.0234375 0  0.8125 0.0234375 0  0.8203125 0.0234375 0  0.828125 0.0234375 0  0.8359375 0.0234375 0  0.84375 0.0234375 0  0.8515625 0.0234375 0  0.859375 0.0234375 0  0.8671
[...]
<PointData  Scalars="v_sol"> 
<DataArray  type="Float64"  Name="v_sol"  format="ascii">-1.8798068314410739e-06  -1.1119736100971133e-06  9.0087438658114135e-06  2.1083632699406058e-05  3.2340122298671873e-05  4.1460061929673425e-05  4.7770482560728862e-05  5.0962820584555910e-05  5.1059421834442926e-05  4.8388015576873848e-05  4.3523141077859122e-05  3.7199969443787109e-05  3.0212759867770385e-05  2.3319628706125252e-05  1.7166482139169421e-05  1.2237839602873825e-05  8.8336691216272380e-06  7.0672409772263193e-06  6.8768099224734348e-06  8.0463351180296521e-06  1.0232317011336188e-05  1.2999156873795242e-05  1.5863773830057575e-05  1.8349934939990254e-05  2.0045052166553811e-05  2.0647590081634963e-05  1.9992586664319813e-05  1.8043373386691249e-05  1.4846441876614732e-05  1.0466878024200014e-05  4.9251702859926070e-06  -1.8406534165262813e-06  -9.9872366202438906e-06  -1.9750564370179593e-05  -3.1416578634140201e-05  -4.5260821634884096e-05  -6.1523947672779836e-05  -8.0374563455198040e-05  -1.0194563088220465e-04  -1.2630791046879984e-04  -1.5345504653175147e-04  -1.8329903165245301e-04  -2.1558621220315772e-04  -2.4996861399650901e-04  -2.8595983276026582e-04  -3.2292791067793988e-04  -3.6014536024391589e-04  -3.9678012215646632e-04  -4.3191303567121687e-04  -4.6457284364063414e-04  -4.9377613833730171e-04  -5.1855444970894213e-04  -5.3799632709964327e-04  -5.5127630907990356e-04  -5.5768433952453893e-04  -5.5664155517612260e-04  -5.4771127071942039e-04  -5.3059619378744436e-04  -5.0513674715322796e-04  -4.7129424108103391e-04  -4.2915219239439032e-04  -3.7888801267842338e-04  -3.2081780461359969e-04  -2.5526949102367850e-04  -1.8301282753580597e-04  -1.0442922044001538e-04  -1.9521506926460954e-05  7.0195958312070257e-05  1.6360181994116654e-04  2.5951931998565716e-04  3.5645977396718613e-04  4.5277560701119883e-04  5.4664840296032890e-04  6.3607716408835963e-04  7.1897321238919036e-04  7.9317070160374932e-04  8.5654828013475919e-04  9.0707638017582554e-04  9.4298583234292605e-04  9.6276578386409730e-04  9.6552143285597719e-04  9.5063701182593460e-04  9.1805707069907063e-04  8.6862462479423536e-04  8.0391021977951318e-04  7.2573795685391821e-04  6.3652017052955945e-04  5.3898953751255294e-04  4.3622305069409195e-04  3.3127747503279564e-04  2.2710466688655837e-04  1.2644450680654484e-04  3.1631915101422958e-05  -5.5391951926497038e-05  -1.3276180774861624e-04  -1.9951811669310790e-04  -2.5549211583411884e-04  -3.0012162062490393e-04  -3.3291884201204535e-04  -3.5442044633661945e-04  -3.6520802517693265e-04  -3.6601232379266627e-04  -3.5805409601559251e-04  -3.4268253484414122e-04  -3.2145126610939829e-04  -2.9598355254832360e-04  -2.6787421862933504e-04  -2.3859331472990435e-04  -2.0940515432084128e-04  -1.8132362446276565e-04  -1.5509175657777718e-04  -1.3118982358412641e-04  -1.0987056917626286e-04  -9.1197459997379381e-05  -7.5097000418070597e-05  -6.1397956530813712e-05  -4.9868383367770049e-05  -4.0241680139689479e-05  -3.2224497666047636e-05  -2.5509425512221689e-05  -1.9776318501599100e-05  -1.4705091290907814e-05  -9.9925497300622055e-06  -5.4110480117132502e-06  -8.8498776233919706e-07  3.3074934533490368e-06  6.2690321304811087e-06  6.0526445243188719e-06  8.4296468566142963e-07  1.0181489655438227e-05  1.0914805322097176e-05  -4.3725615707372876e-05  -1.0587225199865394e-04  -1.6340351193601247e-04  -2.0976028321887947e-04  -2.4176623825963831e-04  -2.5784987455435373e-04  -2.5815713532964486e-04  -2.4437232169653223e-04  -2.1945380697321090e-04  -1.8717275716152764e-04  -1.5159401571200289e-04  -1.1658245083763260e-04  -8.5417375649860961e-05  -6.0545824609456792e-05  -4.3471910851310206e-05  -3.4751930225627003e-05  -3.4058339612334740e-05  -4.0285059732820454e-05  -5.1683320719869072e-05  -6.6037167116205278e-05  -8.0889093279708614e-05  -9.3815629766351395e-05  -1.0272018476746703e-04  -1.0608104645979511e-04  -1.0308180766426535e-04  -9.3566424677076699e-05  -7.7813502058513139e-05  -5.6199133668124694e-05  -2.8863096371055465e-05  4.5053723984960328e-06  4.4719300531332076e-05  9.2989879641022173e-05  1.5073081324478875e-04  2.1932350411978235e-04  2.9996877153661179e-04  3.9359670732722128e-04  5.0088102908618236e-04  6.2218176230857409e-04  7.5745526011594992e-04  9.0616204058236360e-04  1.0671686755891871e-03  1.2387123493302233e-03  1.4183572016440338e-03  1.6030939883506139e-03  1.7893192896223553e-03  1.9727884885964485e-03  2.1490085641212935e-03  2.3132269706330438e-03  2.4606345629580467e-03  2.5865286807358651e-03  2.6864835547594484e-03  2.7564891999183826e-03  2.7930645220529764e-03  2.7933287719923141e-03  2.7550349047540750e-03  2.6765662338825973e-03  2.5569097272294663e-03  2.3956121327388261e-03  2.1927421843127696e-03  1.9488666061287683e-03  1.6650251396637368e-03  1.3428600934286467e-03  9.8437880263300146e-04  5.9161966392953845e-04  1.6830738616875718e-04  -2.8183143427988128e-04  -7.5460362070895208e-04  -1.2432512203701669e-03  -1.7405275714989200e-03  -2.2380140874410795e-03  -2.7261051641438226e-03  -3.1941413727928731e-03  -3.6306450048105531e-03  -4.0236353021471920e-03  -4.3611097121964981e-03  -4.6316086220400590e-03  -4.8248473980807855e-03  -4.9324456496034029e-03  -4.9483921698503458e-03  -4.8692965236284864e-03  -4.6976533990580466e-03  -4.4375427585049967e-03  -4.0950685150289573e-03  -3.6818986353815116e-03  -3.2130175362954125e-03  -2.7036825075978524e-03  -2.1702217324024073e-03  -1.6290639732222572e-03  -1.0956553050706266e-03  -5.8380875114253002e-04  -1.0530525690297742e-04  3.3017598059149650e-04  7.1639068220272510e-04  1.0481920746042890e-03  1.3229665511042901e-03  1.5396624991079490e-03  1.6977388807148867e-03  1.7991907871167125e-03  1.8473009135107586e-03  1.8463321829823628e-03  1.8021763370340018e-03  1.7217225157687517e-03  1.6126526107515190e-03  1.4830137367046053e-03  1.3406849894049622e-03  1.1929436062074214e-03  1.0460564636549608e-03  9.0500627577834610e-04  7.7344450479834481e-04  6.5372353084869089e-04  5.4705508017489229e-04  4.5372522892118559e-04  3.7333193346085161e-04  3.0499804998663073e-04  2.4754729239295098e-04  1.9962633430417113e-04  1.5976497928924874e-04  1.2641422007357163e-04  9.7965760120301718e-05  7.2791421582842503e-05  4.9354429317442391e-05  2.6442821816747336e-05  3.6211266585291655e-06  -1.7822919023470772e-05  -3.3606596984853231e-05  -3.2163206009762319e-05  -1.4088605394369427e-06  2.1919852090610962e-05  -4.3156637423107195e-05  -2.4353681467582900e-04  -4.7322881771869670e-04  -6.8882672934040645e-04  -8.6451158226346627e-04  -9.8629756248982525e-04  -1.0476004894646109e-03  -1.0486147114840431e-03  -9.9546866635729270e-04  -8.9902998632211293e-04  -7.7323908459155512e-04  -6.3324269758911810e-04  -4.9362394363276969e-04  -3.6696090012610023e-04  -2.6283741299509784e-04  -1.8731371968852992e-04  -1.4278591724070427e-04  -1.2813385994192182e-04  -1.3907489750953733e-04  -1.6869315370803345e-04  -2.0815196167680037e-04  -2.4760974668318396e-04  -2.7729979336909048e-04  -2.8864301268287991e-04  -2.7516200856833302e-04  -2.3292980576663594e-04  -1.6037876053862185e-04  -5.7497235705777279e-05  7.5349770484134149e-05  2.3859599222096785e-04  4.3424441729914806e-04  6.6595843976994748e-04  9.3853098576690650e-04  1.2570516038378225e-03  1.6261356987396895e-03  2.0493090659321408e-03  2.5285653280188733e-03  3.0640214223061897e-03  3.6536538040062949e-03  4.2930522058170799e-03  4.9751559169405254e-03  5.6899903781556975e-03  6.4247677949976715e-03  7.1640919843430472e-03  7.8903377812944552e-03  8.5843944388960623e-03  9.2265233861252190e-03  9.7970392210242011e-03  1.0277382653647573e-02  1.0650902536009255e-02  1.0903521001379396e-02  1.1024172641287749e-02  1.1005008187785733e-02  1.0841368562483971e-02  1.0531572139997530e-02  1.0076566254133220e-02  9.4795082252871633e-03  8.7453321666539890e-03  7.8803544376518462e-03  6.8919496753294474e-03  5.7883250654449077e-03  4.5784188353202174e-03  3.2718191529357318e-03  1.8789091991990128e-03  4.1108999484905438e-04  -1.1193142004267038e-03  -2.6973145383795199e-03  -4.3064951650434429e-03  -5.9292692863959825e-03  -7.5450726101034997e-03  -9.1311109013546519e-03  -1.0662169295438546e-02  -1.2110901272683687e-02  -1.3448277593379994e-02  -1.4644312218524577e-02  -1.5669044934766587e-02  -1.6493774895204691e-02  -1.7092496195231711e-02  -1.7443377662050123e-02  -1.7530460567317240e-02  -1.7345158216443123e-02  -1.6885203907216501e-02  -1.6158775313076412e-02  -1.5183939952478425e-02  -1.3985269921846408e-02  -1.2594181716528846e-02  -1.1048623107255165e-02  -9.3900129786589469e-03  -7.6613289456770421e-03  -5.9052056242797140e-03  -4.1622347146250413e-03  -2.4696303306901775e-03  -8.6006896269272704e-04  6.3703817704841893e-04  1.9979163442468868e-03  3.2028105807254117e-03  4.2357829585057839e-03  5.0860357926086749e-03  5.7453692005165419e-03  6.2105688753664023e-03  6.4846100880690287e-03  6.5761208579638306e-03  6.5003968626060182e-03  6.2788126520254717e-03  5.9376368324408251e-03  5.5062192651049334e-03  5.0146775351699920e-03  4.4916459675350346e-03  3.9624093782117927e-03  3.4475878259039895e-03  2.9625887747383203e-03  2.5176925787476993e-03  2.1186083351909936e-03  1.7673056996334469e-03  1.4629139625094774e-03  1.2025326167600210e-03  9.8187056265532850e-04  7.9572153647909519e-04  6.3825870996124696e-04  5.0327663600421889e-04  3.8449366359900378e-04  2.7606761729929741e-04  1.7355248403161863e-04  7.5547965533713298e-05  -1.3623411940760178e-05  -7.9616566597440832e-05  -9.4171251547445122e-05  -1.1428922006995108e-05  2.5570795336885747e-05  -2.0667391738002055e-04  -6.1422119533268143e-04  -1.0645682386120690e-03  -1.4848016314575234e-03  -1.8268213784817704e-03  -2.0623401566956133e-03  -2.1780945396983825e-03  -2.1744131681570317e-03  -2.0633259864242352e-03  -1.8660146908678977e-03  -1.6095366611196926e-03  -1.3232806211451024e-03  -1.0356271805599887e-03  -7.7119790717655626e-04  -5.4889523743210423e-04  -3.8075999121088349e-04  -2.7154977443795614e-04  -2.1889297032961491e-04  -2.1390527815893479e-04  -2.4221873198778911e-04  -2.8544420746713292e-04  -3.2306256473140264e-04  -3.3463839424652367e-04  -3.0204611348398972e-04  -2.1123778689841207e-04  -5.3066788720473118e-05  1.7714113928496322e-04  4.8121505172544365e-04  8.6041523747604372e-04  1.3174832476685315e-03  1.8577501214964934e-03  2.4890353419945309e-03  3.2204539168762883e-03  4.0605390892500598e-03  5.0153929613712201e-03  6.0872988712466448e-03  7.2738423738628712e-03  8.5670996130407257e-03  9.9530673342218181e-03  1.1411295182449845e-02  1.2914908295792693e-02  1.4431196946871250e-02  1.5922488603147940e-02  1.7347816109417966e-02  1.8664999505801097e-02  1.9832839181997613e-02  2.0813359386521096e-02  2.1573908187584260e-02  2.2088522355748094e-02  2.2338825677758762e-02  2.2314225800919830e-02  2.2011531660313353e-02  2.1434111467566828e-02  2.0590755507838777e-02  1.9494408184179423e-02  1.8160913403312801e-02  1.6607883188461427e-02  1.4853763156781835e-02  1.2917132820362456e-02  1.0816255699387057e-02  8.5688619307733530e-03  6.1921466957008502e-03  3.7029618299167758e-03  1.1180782848382502e-03  -1.5447867169732148e-03  -4.2665161620505654e-03  -7.0284570171605309e-03  -9.8090317840584997e-03  -1.2583039403494034e-02  -1.5322539264241543e-02  -1.7995766646651496e-02  -2.0567313395470591e-02  -2.2998208386462854e-02  -2.5246478593074023e-02  -2.7268073406468685e-02  -2.9018213197946601e-02  -3.0453145043135489e-02  -3.1532224682141570e-02  -3.2220254043205866e-02  -3.2489697809121358e-02  -3.2322915449996166e-02  -3.1715119533505837e-02  -3.0672862207655863e-02  -2.9215300490109366e-02  -2.7375619305763921e-02  -2.5197942304019387e-02  -2.2734577984799890e-02  -2.0043989507131540e-02  -1.7187855772575141e-02  -1.4228245646228592e-02  -1.1225231524496561e-02  -8.2352455074302614e-03  -5.3103787647889762e-03  -2.4966865186259088e-03  1.6267058247614857e-04  2.6279732185393897e-03  4.8629639460002838e-03  6.8330154243694272e-03  8.5087094525277129e-03  9.8646856293484100e-03  1.0881615174148684e-02  1.1551056445051767e-02  1.1876944504371942e-02  1.1877691265176998e-02  1.1586260151182732e-02  1.1048139464773253e-02  1.0317618026616310e-02  9.4528263246686714e-03  8.5105547078160159e-03  7.5418791620342970e-03  6.5890926022191621e-03  5.6842429740403440e-03  4.8491224496861459e-03  4.0962872273103204e-03  3.4306558542606690e-03  2.8512506481818776e-03  2.3527898082070144e-03  1.9269386601046569e-03  1.5632971258624476e-03  1.2501862048353721e-03  9.7547615841872982e-04  7.2775832651859158e-04  4.9816260263522462e-04  2.8330715825558491e-04  8.9401363856352607e-05  -6.1164247935762699e-05  -1.2533272049498886e-04  -2.0866508807306969e-05  2.5235522351242198e-05  -4.7219773438787727e-04  -1.1489819756192645e-03  -1.8624481385071368e-03  -2.5166193527618652e-03  -3.0427112384792958e-03  -3.3980970945930830e-03  -3.5631649194266656e-03  -3.5395503636760270e-03  -3.3470882851855044e-03  -3.0195266577314225e-03  -2.5992880652920746e-03  -2.1319830071907771e-03  -1.6613563411106086e-03  -1.2251603114615999e-03  -8.5219156105878718e-04  -5.6050227687946602e-04  -3.5664971692528694e-04  -2.3581518620106680e-04  -1.8266946421625796e-04  -1.7297410157359220e-04  -1.7594809964750175e-04  -1.5738495854530972e-04  -8.3270994869174951e-05  7.6628875375593747e-05  3.4602110094564769e-04  7.4099090002811754e-04  1.2709413982621312e-03  1.9411892377885482e-03  2.7562767753150554e-03  3.7227725341739222e-03  4.8503106016421459e-03  6.1504241738862828e-03  7.6338265816709994e-03  9.3072286921490749e-03  1.1170283164247636e-02  1.3213316905001956e-02  1.5415880758024556e-02  1.7746162139137937e-02  2.0160903598212931e-02  2.2606233367432373e-02  2.5019627629831346e-02  2.7332843793129866e-02  2.9475913447246836e-02  3.1381383269425918e-02  3.2988495229766629e-02  3.4246762614988338e-02  3.5118434946999399e-02  3.5579605431782450e-02  3.5620146076650608e-02  3.5242473672556167e-02  3.4459570248479392e-02  3.3292562848427118e-02  3.1768202552786159e-02  2.9916497678183884e-02  2.7768675936171241e-02  2.5355572341248196e-02  2.2706471362459478e-02  1.9848384310422993e-02  1.6805716331998084e-02  1.3600262194723626e-02  1.0251477214489480e-02  6.7769471320875165e-03  3.1930418109319828e-03  -4.8407271604537674e-04  -4.2383927275637875e-03  -8.0535790683148693e-03  -1.1908676646511931e-02  -1.5780023121476153e-02  -1.9640442694181512e-02  -2.3457385390143054e-02  -2.7193034929747600e-02  -3.0803710560304218e-02  -3.4240043227265919e-02  -3.7447473937457926e-02  -4.0367330843734207e-02  -4.2938522588214033e-02  -4.5099842114174900e-02  -4.6792844678249616e-02  -4.7965122908735169e-02  -4.8573869311885634e-02  -4.8589199399576101e-02  -4.7996338968956276e-02  -4.6798968656260660e-02  -4.5019369909932258e-02  -4.2696955552510789e-02  -3.9887163544386074e-02  -3.6658136814148576e-02  -3.3086444176022287e-02  -2.9252597775612718e-02  -2.5236860321850671e-02  -2.1115645421847216e-02  -1.6959130222486338e-02  -1.2829941020610929e-02  -8.7845059223214395e-03  -4.8723432944290110e-03  -1.1393190186411537e-03  2.3686561914398442e-03  5.6047386585284078e-03  8.5186552353153071e-03  1.1060305968247516e-02  1.3182496498039157e-02  1.4843355542177229e-02  1.6014386393898572e-02  1.6685883989152536e-02  1.6871373435659812e-02  1.6609162962707664e-02  1.5960002810116031e-02  1.5001383485994280e-02  1.3819568201670265e-02  1.2500924199245370e-02  1.1124382366174322e-02  9.7561026517653804e-03  8.4467703294939505e-03  7.2313058874780385e-03  6.1302852357256370e-03  5.1522997070864562e-03  4.2965541291156966e-03  3.5552732835329838e-03  2.9156995801107618e-03  2.3618054019089760e-03  1.8759403857918832e-03  1.4408054773779933e-03  1.0421868189473954e-03  6.7300485769373401e-04  3.3869879610390010e-04  6.5697193303703303e-05  -9.2143351881794389e-05  -2.7543263720543156e-05  2.2899360292187241e-05  -8.2662884737686392e-04  -1.8342154247266145e-03  -2.8502244814169898e-03  -3.7599587876418874e-03  -4.4764055010163718e-03  -4.9444679125171176e-03  -5.1403046434329684e-03  -5.0695784273202841e-03  -4.7630061229887756e-03  -4.2698871708046829e-03  -3.6504536002970774e-03  -2.9681596309062397e-03  -2.2828245518167868e-03  -1.6451920037484228e-03  -1.0930978242652720e-03  -6.4916029895596488e-04  -3.1978647126415608e-04  -9.5290952672112046e-05  4.8934225475253468e-05  1.5015250918486400e-04  2.5480823627910655e-04  4.1389652919565406e-04  6.7760610558585080e-04  1.0902023695016044e-03  1.6863828133654112e-03  2.4901022531853951e-03  3.5162554592195932e-03  4.7745445222706099e-03  6.2736451053843640e-03  8.0236769529504048e-03  1.0035966533484325e-02  1.2319990985161101e-02  1.4878511661036731e-02  1.7702676631616766e-02  2.0768378638731284e-02  2.4034064994874343e-02  2.7440210188781480e-02  3.0910488026307574e-02  3.4354856040693833e-02  3.7674389147850734e-02  4.0767510089773924e-02  4.3537020465350011e-02  4.5896745619335780e-02  4.7777047269139006e-02  4.9128372729744262e-02  4.9922549277578936e-02  5.0151952289607803e-02  4.9827010051636519e-02  4.8972567984501274e-02  4.7623826452439483e-02  4.5822337476590889e-02  4.3612467823901477e-02  4.1038536424212499e-02  3.8142703928496079e-02  3.4963581010013588e-02  3.1535461411632201e-02  2.7888060469065765e-02  2.4046638293111905e-02  2.0032402967030589e-02  1.5863112446362154e-02  1.1553808572067415e-02  7.1176615444989572e-03  2.5669005181443330e-03  -2.0865469076586682e-03  -6.8294732140120181e-03  -1.1645254034474070e-02  -1.6515683237744053e-02  -2.1418010942461381e-02  -2.6323595522377972e-02  -3.1197651801408561e-02  -3.5997888452556047e-02  -4.0674114080027135e-02  -4.5167920036134644e-02  -4.9412999659178967e-02  -5.3336113112803153e-02  -5.6858843407795560e-02  -5.9900238149535941e-02  -6.2380319498849264e-02  -6.4224382072663330e-02  -6.5367760055707463e-02  -6.5760758460488969e-02  -6.5373564239879181e-02  -6.4199203120333448e-02  -6.2255945473639170e-02  -5.9587775629149381e-02  -5.6261916489116326e-02  -5.2364800187848178e-02  -4.7996271255423696e-02  -4.3262854962139760e-02  -3.8270854625110123e-02  -3.3120298789632852e-02  -2.7900363029915876e-02  -2.2687106174525833e-02  -1.7542625641829769e-02  -1.2518364101938330e-02  -7.6583748320551842e-03  -3.0027761807486899e-03  1.4065917215775607e-03  5.5208981071151395e-03  9.2816877125404037e-03  1.2622600402369000e-02  1.5475262187064820e-02  1.7774416006412434e-02  1.9468667148036665e-02  2.0530279953325462e-02  2.0962813104349103e-02  2.0804692321480800e-02  2.0127103248234069e-02  1.9026518868754005e-02  1.7613775513285086e-02  1.6001958463556759e-02  1.4295661070505911e-02  1.2583325804463455e-02  1.0933237726146280e-02  9.3928603404664773e-03  7.9905211961482803e-03  6.7383856325644630e-03  5.6358176423362766e-03  4.6725670690091889e-03  3.8316010698097327e-03  3.0917811446481910e-03  2.4307672523454261e-03  1.8286341654546331e-03  1.2728789731796784e-03  7.6487946826700665e-04  3.2989354914612234e-04  2.5114575790683833e-05  -3.0732260275726173e-05  1.9841006581902502e-05  -1.2596959823635504e-03  -2.6588860211575771e-03  -4.0165897331163299e-03  -5.1998862422511834e-03  -6.1051416728306789e-03  -6.6674328710368486e-03  -6.8623404912971000e-03  -6.7040109832140699e-03  -6.2387189140487125e-03  -5.5354878032675007e-03  -4.6754222051907058e-03  -3.7414353911184679e-03  -2.8095446930061201e-03  -1.9422932215769539e-03  -1.1843200233584330e-03  -5.5980419029809793e-04  -7.1426220178664679e-05  2.9934059474844027e-04  5.9061285428243029e-04  8.5692145986474390e-04  1.1642571196495283e-03  1.5834994354859849e-03  2.1830339713885317e-03  3.0219639025366053e-03  4.1457159321752956e-03  5.5854039532297435e-03  7.3607026314462583e-03  9.4845010639539318e-03  1.1966927355517992e-02  1.4816209075656877e-02  1.8035519360532101e-02  2.1617132996613629e-02  2.5535934596994991e-02  2.9744216444292530e-02  3.4169196072207579e-02  3.8713764215207218e-02  4.3260350036751050e-02  4.7677704790687940e-02  5.1829971488526604e-02  5