<?xml version="1.0"?>
<VTKFile type="UnstructuredGrid"  version="0.1"  >
<UnstructuredGrid>
<Piece  NumberOfPoints="1089" NumberOfCells="1024">
<Points>
<DataArray  type="Float64"  NumberOfComponents="3"  format="ascii">0 0 0  0.03125 0 0  0.0625 0 0  0.09375 0 0  0.125 0 0  0.15625 0 0  0.1875 0 0  0.21875 0 0  0.25 0 0  0.28125 0 0  0.3125 0 0  0.34375 0 0  0.375 0 0  0.40625 0 0  0.4375 0 0  0.46875 0 0  0.5 0 0  0.53125 0 0  0.5625 0 0  0.59375 0 0  0.625 0 0  0.65625 0 0  0.6875 0 0  0.71875 0 0  0.75 0 0  0.78125 0 0  0.8125 0 0  0.84375 0 0  0.875 0 0  0.90625 0 0  0.9375 0 0  0.96875 0 0  1 0 0  0 0.03125 0  0.03125 0.03125 0  0.0625 0.03125 0  0.09375 0.03125 0  0.125 0.03125 0  0.15625 0.03125 0  0.1875 0.03125 0  0.21875 0.03125 0  0.25 0.03125 0  0.28125 0.03125 0  0.3125 0.03125 0  0.34375 0.03125 0  0.375 0.03125 0  0.40625 0.03125 0  0.4375 0.03125 0  0.46875 0.03125 0  0.5 0.03125 0  0.53125 0.03125 0  0.5625 0.03125 0  0.59375 0.03125 0  0.625 0.03125 0  0.65625 0.03125 0  0.6875 0.03125 0  0.71875 0.03125 0  0.75 0.03125 0  0.78125 0.03125 0  0.8125 0.03125 0  0.84375 0.03125 0  0.875 0.03125 0  0.90625 0.03125 0  0.9375 0.03125 0  0.96875 0.03125 0  1 0.03125 0  0 0.0625 0  0.03125 0.0625 0  0.0625 0.0625 0  0.09375 0.0625 0  0.125 0.0625 0  0.15625 0.0625 0  0.1875 0.0625 0  0.21875 0.0625 0  0.25 0.0625 0  0.28125 0.0625 0  0.3125 0.0625 0  0.34375 0.0625 0  0.375 0.0625 0  0.40625 0.0625 0  0.4375 0.0625 0  0.46875 0.0625 0  0.5 0.0625 0  0.53125 0.0625 0  0.5625 0.0625 0  0.59375 0.0625 0  0.625 0.0625 0  0.65625 0.0625 0  0.6875 0.0625 0  0.71875 0.0625 0  0.75 0.0625 0  0.78125 0.0625 0  0.8125 0.0625 0  0.84375 0.0625 0  0.875 0.0625 0  0.90625 0.0625 0  0.9375 0.0625 0  0.96875 0.0625 0  1 0.0625 0  0 0.09375 0  0.03125 0.09375 0  0.0625 0.09375 0  0.09375 0.09375 0  0.125 0.09375 0  0.15625 0.09375 0  0.1875 0.09375 0  0.21875 0.09375 0  0.25 0.09375 0  0.28125 0.09375 0  0.3125 0.09375 0  0.34375 0.09375 0  0.375 0.09375 0  0.40625 0.09375 0  0.4375 0.09375 0  0.46875 0.09375 0  0.5 0.09375 0  0.53125 0.09375 0  0.5625 0.09375 0  0.59375 0.09375 0  0.625 0.09375 0  0.65625 0.09375 0  0.6875 0.09375 0  0.71875 0.09375 0  0.75 0.09375 0  0.78125 0.09375 0  0.8125 0.09375 0  0.84375 0.09375 0  0.875 0.09375 0  0.90625 0.09375 0  0.9375 0.09375 0  0.96875 0.09375 0  1 0.09375 0  0 0.125 0  0.03125 0.125 0  0.0625 0.125 0  0.09375 0.125 0  0.125 0.125 0  0.15625 0.125 0  0.1875 0.125 0  0.21875 0.125 0  0.25 0.125 0  0.28125 0.125 0  0.3125 0.125 0  0.34375 0.125 0  0.375 0.125 0  0.40625 0.125 0  0.4375 0.125 0  0.46875 0.125 0  0.5 0.125 0  0.53125 0.125 0  0.5625 0.125 0  0.59375 0.125 0  0.625 0.125 0  0.65625 0.125 0  0.6875 0.125 0  0.71875 0.125 0  0.75 0.125 0  0.78125 0.125 0  0.8125 0.125 0  0.84375 0.125 0  0.875 0.125 0  0.90625 0.125 0  0.9375 0.125 0  0.96875 0.125 0  1 0.125 0  0 0.15625 0  0.03125 0.15625 0  0.0625 0.15625 0  0.09375 0.15625 0  0.125 0.15625 0  0.15625 0.15625 0  0.1875 0.15625 0  0.21875 0.15625 0  0.25 0.15625 0  0.28125 0.15625 0  0.3125 0.15625 0  0.34375 0.15625 0  0.375 0.15625 0  0.40625 0.15625 0  0.4375 0.15625 0  0.46875 0.15625 0  0.5 0.15625 0  0.53125 0.15625 0  0.5625 0.15625 0  0.59375 0.15625 0  0.625 0.15625 0  0.65625 0.15625 0  0.6875 0.15625 0  0.71875 0.15625 0  0.75 0.15625 0  0.78125 0.15625 0  0.8125 0.15625 0  0.84375 0.15625 0  0.875 0.15625 0  0.90625 0.15625 0  0.9375 0.15625 0  0.96875 0.15625 0  1 0.15625 0  0 0.1875 0  0.03125 0.1875 0  0.0625 0.1875 0  0.09375 0.1875 0  0.125 0.1875 0  0.15625 0.1875 0  0.1875 0.1875 0  0.21875 0.1875 0  0.25 0.1875 0  0.28125 0.1875 0  0.3125 0.1875 0  0.34375 0.1875 0  0.375 0.1875 0  0.40625 0.1875 0  0.4375 0.1875 0  0.46875 0.1875 0  0.5 0.1875 0  0.53125 0.1875 0  0.5625 0.1875 0  0.59375 0.1875 0  0.625 0.1875 0  0.65625 0.1875 0  0.6875 0.1875 0  0.71875 0.1875 0  0.75 0.1875 0  0.78125 0.1875 0  0.8125 0.1875 0  0.84375 0.1875 0  0.875 0.1875 0  0.90625 0.1875 0  0.9375 0.1875 0  0.96875 0.1875 0  1 0.1875 0  0 0.21875 0  0.03125 0.21875 0  0.0625 0.21875 0  0.09375 0.21875 0  0.125 0.21875 0  0.15625 0.21875 0  0.1875 0.21875 0  0.21875 0.21875 0  0.25 0.21875 0  0.28125 0.21875 0  0.3125 0.21875 0  0.34375 0.21875 0  0.375 0.21875 0  0.40625 0.21875 0  0.4375 0.21875 0  0.46875 0.21875 0  0.5 0.21875 0  0.53125 0.21875 0  0.5625 0.21875 0  0.59375 0.21875 0  0.625 0.21875 0  0.65625 0.21875 0  0.6875 0.21875 0  0.71875 0.21875 0  0.75 0.21875 0  0.78125 0.21875 0  0.8125 0.21875 0  0.84375 0.21875 0  0.875 0.21875 0  0.90625 0.21875 0  0.9375 0.21875 0  0.96875 0.21875 0  1 0.21875 0  0 0.25 0  0.03125 0.25 0  0.0625 0.25 0  0.09375 0.25 0  0.125 0.25 0  0.15625 0.25 0  0.1875 0.25 0  0.21875 0.25 0  0.25 0.25 0  0.28125 0.25 0  0.3125 0.25 0  0.34375 0.25 0  0.375 0.25 0  0.40625 0.25 0  0.4375 0.25 0  0.46875 0.25 0  0.5 0.25 0  0.53125 0.25 0  0.5625 0.25 0  0.59375 0.25 0  0.625 0.25 0  0.65625 0.25 0  0.6875 0.25 0  0.71875 0.25 0  0.75 0.25 0  0.78125 0.25 0  0.8125 0.25 0  0.84375 0.25 0  0.875 0.25 0  0.90625 0.25 0  0.9375 0.25 0  0.96875 0.25 0  1 0.25 0  0 0.28125 0  0.03125 0.28125 0  0.0625 0.28125 0  0.09375 0.28125 0  0.125 0.28125 0  0.15625 0.28125 0  0.1875 0.28125 0  0.21875 0.28125 0  0.25 0.28125 0  0.28125 0.28125 0  0.3125 0.28125 0  0.34375 0.28125 0  0.375 0.28125 0  0.40625 0.28125 0  0.4375 0.28125 0  0.46875 0.28125 0  0.5 0.28125 0  0.53125 0.28125 0  0.5625 0.28125 0  0.59375 0.28125 0  0.625 0.28125 0  0.65625 0.28125 0  0.6875 0.28125 0  0.71875 0.28125 0  0.75 0.28125 0  0.78125 0.28125 0  0.8125 0.28125 0  0.84375 0.28125 0  0.875 0.28125 0  0.90625 0.28125 0  0.9375 0.28125 0  0.96875 0.28125 0  1 0.28125 0  0 0.3125 0  0.03125 0.3125 0  0.0625 0.3125 0  0.09375 0.3125 0  0.125 0.3125 0  0.15625 0.3125 0  0.1875 0.3125 0  0.21875 0.3125 0  0.25 0.3125 0  0.28125 0.3125 0  0.3125 0.3125 0  0.34375 0.3125 0  0.375 0.3125 0  0.40625 0.3125 0  0.4375 0.3125 0  0.46875 0.3125 0  0.5 0.3125 0  0.53125 0.3125 0  0.5625 0.3125 0  0.59375 0.3125 0  0.625 0.3125 0  0.65625 0.3125 0  0.6875 0.3125 0  0.71875 0.3125 0  0.75 0.3125 0  0.78125 0.3125 0  0.8125 0.3125 0  0.84375 0.3125 0  0.875 0.3125 0  0.90625 0.3125 0  0.9375 0.3125 0  0.96875 0.3125 0  1 0.3125 0  0 0.34375 0  0.03125 0.34375 0  0.0625 0.34375 0  0.09375 0.34375 0  0.125 0.34375 0  0.15625 0.34375 0  0.1875 0.34375 0  0.21875 0.34375 0  0.25 0.34375 0  0.28125 0.34375 0  0.3125 0.34375 0  0.34375 0.34375 0  0.375 0.34375 0  0.40625 0.34375 0  0.4375 0.34375 0  0.46875 0.34375 0  0.5 0.34375 0  0.53125 0.34375 0  0.5625 0.34375 0  0.59375 0.34375 0  0.625 0.34375 0  0.65625 0.34375 0  0.6875 0.34375 0  0.71875 0.34375 0  0.75 0.34375 0  0.78125 0.34375 0  0.8125 0.34375 0  0.84375 0.34375 0  0.875 0.34375 0  0.90625 0.34375 0  0.9375 0.34375 0  0.96875 0.34375 0  1 0.34375 0  0 0.375 0  0.03125 0.375 0  0.0625 0.375 0  0.09375 0.375 0  0.125 0.375 0  0.15625 0.375 0  0.1875 0.375 0  0.21875 0.375 0  0.25 0.375 0  0.28125 0.375 0  0.3125 0.375 0  0.34375 0.375 0  0.375 0.375 0  0.40625 0.375 0  0.4375 0.375 0  0.46875 0.375 0  0.5 0.375 0  0.53125 0.375 0  0.5625 0.375 0  0.59375 0.375 0  0.625 0.375 0  0.65625 0.375 0  0.6875 0.375 0  0.71875 0.375 0  0.75 0.375 0  0.78125 0.375 0  0.8125 0.375 0  0.84375 0.375 0  0.875 0.375 0  0.90625 0.375 0  0.9375 0.375 0  0.96875 0.375 0  1 0.375 0  0 0.40625 0  0.03125 0.40625 0  0.0625 0.40625 0  0.09375 0.40625 0  0.125 0.40625 0  0.15625 0.40625 0  0.1875 0.40625 0  0.21875 0.40625 0  0.25 0.40625 0  0.28125 0.40625 0  0.3125 0.40625 0  0.34375 0.40625 0  0.375 0.40625 0  0.40625 0.40625 0  0.4375 0.40625 0  0.46875 0.40625 0  0.5 0.40625 0  0.53125 0.40625 0  0.5625 0.40625 0  0.59375 0.40625 0  0.625 0.40625 0  0.65625 0.40625 0  0.6875 0.40625 0  0.71875 0.40625 0  0.75 0.40625 0  0.78125 0.40625 0  0.8125 0.40625 0  0.84375 0.40625 0  0.875 0.40625 0  0.90625 0.40625 0  0.9375 0.40625 0  0.96875 0.40625 0  1 0.40625 0  0 0.4375 0  0.03125 0.4375 0  0.0625 0.4375 0  0.09375 0.4375 0  0.125 0.4375 0  0.15625 0.4375 0  0.1875 0.4375 0  0.21875 0.4375 0  0.25 0.4375 0  0.28125 0.4375 0  0.3125 0.4375 0  0.34375 0.4375 0  0.375 0.4375 0  0.40625 0.4375 0  0.4375 0.4375 0  0.46875 0.4375 0  0.5 0.4375 0  0.53125 0.4375 0  0.5625 0.4375 0  0.59375 0.4375 0  0.625 0.4375 0  0.65625 0.4375 0  0.6875 0.4375 0  0.71875 0.4375 0  0.75 0.4375 0  0.78125 0.4375 0  0.8125 0.4375 0  0.84375 0.4375 0  0.875 0.4375 0  0.90625 0.4375 0  0.9375 0.4375 0  0.96875 0.4375 0  1 0.4375 0  0 0.46875 0  0.03125 0.46875 0  0.0625 0.46875 0  0.09375 0.46875 0  0.125 0.46875 0  0.15625 0.46875 0  0.1875 0.46875 0  0.21875 0.46875 0  0.25 0.46875 0  0.28125 0.46875 0  0.3125 0.46875 0  0.34375 0.46875 0  0.375 0.46875 0  0.40625 0.46875 0  0.4375 0.46875 0  0.46875 0.46875 0  0.5 0.46875 0  0.53125 0.46875 0  0.5625 0.46875 0  0.59375 0.46875 0  0.625 0.46875 0  0.65625 0.46875 0  0.6875 0.46875 0  0.71875 0.46875 0  0.75 0.46875 0  0.78125 0.46875 0  0.8125 0.46875 0  0.84375 0.46875 0  0.875 0.46875 0  0.90625 0.46875 0  0.9375 0.46875 0  0.96875 0.46875 0  1 0.46875 0  0 0.5 0  0.03125 0.5 0  0.0625 0.5 0  0.09375 0.5 0  0.125 0.5 0  0.15625 0.5 0  0.1875 0.5 0  0.21875 0.5 0  0.25 0.5 0  0.28125 0.5 0  0.3125 0.5 0  0.34375 0.5 0  0.375 0.5 0  0.40625 0.5 0  0.4375 0.5 0  0.46875 0.5 0  0.5 0.5 0  0.53125 0.5 0  0.5625 0.5 0  0.59375 0.5 0  0.625 0.5 0  0.65625 0.5 0  0.6875 0.5 0  0.71875 0.5 0  0.75 0.5 0  0.78125 0.5 0  0.8125 0.5 0  0.84375 0.5 0  0.875 0.5 0  0.90625 0.5 0  0.9375 0.5 0  0.96875 0.5 0  1 0.5 0  0 0.53125 0  0.03125 0.53125 0  0.0625 0.53125 0  0.09375 0.53125 0  0.125 0.53125 0  0.15625 0.53125 0  0.1875 0.53125 0  0.21875 0.53125 0  0.25 0.53125 0  0.28125 0.53125 0  0.3125 0.53125 0  0.34375 0.53125 0  0.375 0.53125 0  0.40625 0.53125 0  0.4375 0.53125 0  0.46875 0.53125 0  0.5 0.53125 0  0.53125 0.53125 0  0.5625 0.53125 0  0.59375 0.53125 0  0.625 0.53125 0  0.65625 0.53125 0  0.6875 0.53125 0  0.71875 0.53125 0  0.75 0.53125 0  0.78125 0.531
[...]
<PointData  Scalars="u_sol"> 
<DataArray  type="Float64"  Name="u_sol"  format="ascii">-8.2470868751531987e-06  -1.1801421379898955e-04  3.1683401910048660e-04  1.0345773237474723e-03  1.0909811277196233e-03  2.0681948561377820e-03  1.9847561038122330e-03  3.5972415266514264e-04  5.5577366069594347e-03  1.5941575981217510e-02  2.6029913736432830e-02  3.2092668874484913e-02  2.9128503855372107e-02  1.6326855246658625e-02  -2.2868169828583946e-03  -2.1228565409461234e-02  -3.6620957739781093e-02  -4.4715635686734367e-02  -4.0203972483452609e-02  -2.2202181327921160e-02  5.3948729535112693e-03  3.4472907595672793e-02  5.4450065288426830e-02  5.7789940272528831e-02  4.4079911023563859e-02  2.6290145551357166e-02  1.1180718988652858e-02  1.1900323667768226e-03  -9.7479454344856107e-04  -1.1341217311358913e-03  -6.6542226631724293e-04  -3.3426791289290696e-04  4.2974086746894863e-05  -2.8312480179251519e-04  1.2851989048470311e-03  6.0088900526183604e-03  1.0960523866150399e-02  1.4312601053921147e-02  1.4414662675295217e-02  1.5948587199718194e-02  1.9580403402568062e-02  1.3849765712715867e-02  -1.2434145133118590e-02  -6.2881941444264428e-02  -1.2958837367886974e-01  -1.9906026471382957e-01  -2.5972679167007362e-01  -3.0487143279047163e-01  -3.3157326331823955e-01  -3.3827446435056863e-01  -3.2490614642751769e-01  -2.9359227198722215e-01  -2.4523101405316144e-01  -1.8155839840527099e-01  -1.0755137855979306e-01  -3.2842499902266363e-02  2.9319349410982604e-02  6.8158500109397016e-02  7.6592750795912656e-02  6.4236945440468221e-02  4.3827146766536679e-02  2.2806897751087768e-02  9.8332792272262746e-03  2.9929695698319957e-03  3.7296306651756422e-04  -8.8480632283221568e-05  -6.4417287131871557e-04  3.0734929829840580e-03  1.0518176910021665e-02  1.5638304750689121e-02  1.5255232358220329e-02  1.4233342489568047e-02  7.7384240965482111e-03  -2.2485659782987728e-02  -8.8563675958938159e-02  -1.7699513097511171e-01  -2.6480215046704891e-01  -3.3814742135725151e-01  -3.9139922712089326e-01  -4.2580110949837158e-01  -4.4557445267923446e-01  -4.5479800122425146e-01  -4.5621993087026042e-01  -4.5043448013442866e-01  -4.3570323136041983e-01  -4.0988931968351222e-01  -3.6968204062884008e-01  -3.1170140613642788e-01  -2.3566743792224748e-01  -1.4906983802240342e-01  -6.8635989842985648e-02  -9.4416234220019712e-03  2.1329731802541458e-02  3.1682879360772805e-02  2.9857479938470485e-02  1.8293250425947417e-02  8.6976740860967502e-03  2.2091398610944685e-03  -4.1868430070538063e-04  -1.2310772587128655e-03  5.7445260892296105e-03  1.5083039314237228e-02  1.4629502396848041e-02  8.7521094492841352e-03  -7.2227021583078825e-03  -5.8353360038542586e-02  -1.4788830750684870e-01  -2.4755051453186425e-01  -3.3295919054941497e-01  -3.9357561132631358e-01  -4.3026531116647915e-01  -4.5052734382025866e-01  -4.6149535971199329e-01  -4.6746350769906120e-01  -4.7019510007493764e-01  -4.7027490979627457e-01  -4.6849626006357725e-01  -4.6594300417036816e-01  -4.6169862990311789e-01  -4.5234147155253812e-01  -4.3070083730707126e-01  -3.8659883095894249e-01  -3.1211140915594199e-01  -2.1116084028782442e-01  -1.0744405027873703e-01  -3.2144853740764236e-02  2.0459829435492886e-03  1.3399728896216035e-02  1.6898930936592380e-02  1.0032552759465321e-02  3.2802341823111444e-03  -5.7028427156680876e-04  -1.6663476932096744e-03  9.2017746165426861e-03  1.4865131158582954e-02  5.3585530607973483e-03  -1.6901324963216488e-02  -7.7680592456801076e-02  -1.7503779848446688e-01  -2.7523684157504652e-01  -3.5239112259356831e-01  -3.9800267331220546e-01  -4.1813854640727166e-01  -4.2377571714356910e-01  -4.2295233633118035e-01  -4.1961850224746661e-01  -4.1553917512292959e-01  -4.1187734282145344e-01  -4.0955479194756489e-01  -4.0892925547329806e-01  -4.1012786953299235e-01  -4.1444082790942310e-01  -4.2273900529257102e-01  -4.3290770765273690e-01  -4.3604117327756070e-01  -4.1531127230637493e-01  -3.5325155716148404e-01  -2.4693789022943080e-01  -1.2332354831089616e-01  -3.1828313709533027e-02  1.5563717521536072e-03  6.9565525725658042e-03  8.8788963550437399e-03  3.0931172119450520e-03  -6.2469791684604495e-04  -1.6728943701049919e-03  1.0161256853110362e-02  5.5180449362161208e-03  -1.8895950557201960e-02  -7.8349632983285691e-02  -1.7454934816307879e-01  -2.7236383421914079e-01  -3.4227824080358071e-01  -3.7640704751268178e-01  -3.8474627641655140e-01  -3.8125730305494437e-01  -3.7498127964632993e-01  -3.6988443937788379e-01  -3.6726547057171499e-01  -3.6685158364210063e-01  -3.6736609424124561e-01  -3.6738546816801498e-01  -3.6635377155311238e-01  -3.6483869421543197e-01  -3.6387153826030755e-01  -3.6573530363845863e-01  -3.7399894219456559e-01  -3.9079931678255758e-01  -4.0957213681091648e-01  -4.0905392131143437e-01  -3.6174175756360039e-01  -2.5697252557180400e-01  -1.2251654166323651e-01  -2.2687357685260923e-02  4.3473637699978510e-03  4.1398038478653388e-03  2.1087117924099949e-03  -4.2239179352625907e-04  9.7997072257389434e-05  4.6769968332788913e-03  -1.4472888874938474e-02  -6.5917898830395616e-02  -1.5407563541337829e-01  -2.4873388155374146e-01  -3.1568602599086981e-01  -3.4449993579649213e-01  -3.4696788892015773e-01  -3.3993373158831969e-01  -3.3373310317118138e-01  -3.3188504260959806e-01  -3.3409607263878160e-01  -3.3814688453420411e-01  -3.4176822161470399e-01  -3.4394939168511662e-01  -3.4485703306135579e-01  -3.4491243016769768e-01  -3.4411850663860727e-01  -3.4217689740656237e-01  -3.3876222829134556e-01  -3.3490098414468028e-01  -3.3533390151415243e-01  -3.4770333965279793e-01  -3.7164183999256706e-01  -3.8386526399170318e-01  -3.4607556772869458e-01  -2.4096835181911452e-01  -1.0149582596938229e-01  -7.0376196688168016e-03  3.9766148357223757e-03  2.6066705459439673e-03  -2.9980571973643841e-04  2.7164815279208210e-03  -6.3836981338249070e-03  -4.6120880829473965e-02  -1.2095440580892651e-01  -2.1047672028532038e-01  -2.7879744266350709e-01  -3.0876313959259849e-01  -3.1020081079708933e-01  -3.0242908965901416e-01  -2.9769201123146910e-01  -2.9883930406482700e-01  -3.0359875205335296e-01  -3.0832906580827035e-01  -3.1108765866241644e-01  -3.1223804099075309e-01  -3.1284493314082484e-01  -3.1348543236403442e-01  -3.1432536422872998e-01  -3.1553566361419316e-01  -3.1717091743920867e-01  -3.1860914852995892e-01  -3.1787419660709726e-01  -3.1283751604202392e-01  -3.0662771796478361e-01  -3.1148466315223788e-01  -3.3490192307380845e-01  -3.5233422198662706e-01  -3.1468374375270247e-01  -2.0233086645183779e-01  -6.3476121256141826e-02  8.0101639171192736e-03  2.7460606288425124e-04  -3.2080641282154326e-04  4.2797516810033345e-03  -2.1035965372391739e-02  -8.0834945595145632e-02  -1.6143710896578181e-01  -2.3278534098388937e-01  -2.6971910404973348e-01  -2.7473661368019053e-01  -2.6753027794780826e-01  -2.6350121643661012e-01  -2.6597762284762744e-01  -2.7131571717792496e-01  -2.7519052592102539e-01  -2.7649238648871499e-01  -2.7675948785454924e-01  -2.7722985006221285e-01  -2.7798905223234999e-01  -2.7882790630213178e-01  -2.7965620853291029e-01  -2.8050858926484107e-01  -2.8177154742514421e-01  -2.8419086624984108e-01  -2.8817810290683910e-01  -2.9157488449411878e-01  -2.8899674945529419e-01  -2.8004479022367568e-01  -2.8005630388042974e-01  -3.0279022582071546e-01  -3.1860524916224298e-01  -2.6925518801849069e-01  -1.4356891356763660e-01  -1.8662553333248160e-02  7.6667633994245707e-03  -2.2397998936598755e-03  5.1770192752174172e-03  -3.5524063828426176e-02  -1.0520052954572268e-01  -1.7689170091549863e-01  -2.2451180651418076e-01  -2.3849800064606710e-01  -2.3394466871621969e-01  -2.2964642010275299e-01  -2.3207681896052307e-01  -2.3747996142003092e-01  -2.4096941665729291e-01  -2.4185195564613293e-01  -2.4242205799150723e-01  -2.4389667632001566e-01  -2.4581367201873400e-01  -2.4762596394865646e-01  -2.4911877125799961e-01  -2.5026426936932400e-01  -2.5111382688593487e-01  -2.5156493159597987e-01  -2.5170871493383762e-01  -2.5262037130659498e-01  -2.5632449436571692e-01  -2.6187451763610803e-01  -2.6145002782402993e-01  -2.5150083575178300e-01  -2.5095835275815653e-01  -2.7503360919454800e-01  -2.8035459693583742e-01  -2.0638620584332693e-01  -7.1849815384347412e-02  1.1726098094778030e-02  -2.5345122072694863e-03  5.4627999532826307e-03  -4.4168981271734083e-02  -1.1297861135106523e-01  -1.6940361191810357e-01  -1.9749620767834711e-01  -2.0008864312768671e-01  -1.9597855136413625e-01  -1.9723675604068175e-01  -2.0259489533610023e-01  -2.0654060132559943e-01  -2.0775996991419976e-01  -2.0879436753004776e-01  -2.1100270816350433e-01  -2.1350711212634246e-01  -2.1557920233101338e-01  -2.1725385853603676e-01  -2.1875857683340746e-01  -2.2025919642305275e-01  -2.2179334390743516e-01  -2.2330618605023630e-01  -2.2437433488805908e-01  -2.2426837515419026e-01  -2.2365313469779438e-01  -2.2607005245071068e-01  -2.3204487258539302e-01  -2.3149715288192593e-01  -2.2059043063780046e-01  -2.2436752056227091e-01  -2.4879539246759286e-01  -2.2948293435158046e-01  -1.2174249238372001e-01  -9.3576565608720005e-03  4.1689386143442184e-03  5.3106040488759016e-03  -4.4825813143669957e-02  -1.0570268057148313e-01  -1.4700877016195732e-01  -1.6283632669377562e-01  -1.6241842171212748e-01  -1.6216022332568061e-01  -1.6683421092997114e-01  -1.7175627437164265e-01  -1.7390685615624557e-01  -1.7523862035688451e-01  -1.7767246811441761e-01  -1.8037231998917172e-01  -1.8239001418399486e-01  -1.8396254265724113e-01  -1.8548706501768775e-01  -1.8707000021906298e-01  -1.8868355469456105e-01  -1.9032502081926297e-01  -1.9210248145677017e-01  -1.9420644376927307e-01  -1.9628346932336496e-01  -1.9674509098365142e-01  -1.9546870135937347e-01  -1.9734669877100672e-01  -2.0304329026831031e-01  -1.9954111799510169e-01  -1.8895524521877202e-01  -2.0182292784242076e-01  -2.1574531172613373e-01  -1.5315255921398033e-01  -3.2769043951555325e-02  1.2328693372537313e-02  5.1397158405760909e-03  -3.8761567124628873e-02  -8.8510411636019470e-02  -1.1770884273907824e-01  -1.2727281577292562e-01  -1.2777815229146131e-01  -1.3079298552719401e-01  -1.3626925398659079e-01  -1.3991288762753504e-01  -1.4171429682313902e-01  -1.4403035694591582e-01  -1.4685216857917854e-01  -1.4902410631147583e-01  -1.5070893972476523e-01  -1.5249085949583260e-01  -1.5440392610672296e-01  -1.5629166107081383e-01  -1.5811714328682749e-01  -1.5988975005127307e-01  -1.6156911802314045e-01  -1.6322503700443980e-01  -1.6534882934907180e-01  -1.6794662518460132e-01  -1.6871881017009616e-01  -1.6727232240547366e-01  -1.6995535441967671e-01  -1.7414731627291957e-01  -1.6534165238279000e-01  -1.6080432736165282e-01  -1.8074325543139461e-01  -1.5836946844295444e-01  -4.9894071268123438e-02  1.6161585236722321e-02  4.8415770678180226e-03  -2.8547574691154081e-02  -6.6496590222653640e-02  -8.6800577908378487e-02  -9.3620234951813208e-02  -9.5854715096965470e-02  -1.0042287731034590e-01  -1.0537562397406797e-01  -1.0826079786813593e-01  -1.1045236846315959e-01  -1.1319215005781399e-01  -1.1566011505334273e-01  -1.1753072867603377e-01  -1.1943223698117364e-01  -1.2151185330499074e-01  -1.2354557933157199e-01  -1.2553469870308834e-01  -1.2756395712427251e-01  -1.2964564434557344e-01  -1.3175392548827264e-01  -1.3372428202917677e-01  -1.3541784974331952e-01  -1.3753205044592806e-01  -1.4027326748338098e-01  -1.4061830989503085e-01  -1.3960061193300607e-01  -1.4404942975648330e-01  -1.4319338604672838e-01  -1.3132863767662314e-01  -1.4082057200600723e-01  -1.4454271016164108e-01  -6.1753509168737987e-02  1.5427383740294514e-02  4.5412107859506114e-03  -1.6501026270591031e-02  -4.3089860276479992e-02  -5.6843168887319627e-02  -6.2417788323180776e-02  -6.5803946641739317e-02  -7.0531940950619973e-02  -7.4654003954505749e-02  -7.7267932222958968e-02  -7.9714458463173196e-02  -8.2308251442190117e-02  -8.4433071696691370e-02  -8.6328777662509723e-02  -8.8380658247044760e-02  -9.0432248203712345e-02  -9.2424558148354555e-02  -9.4494180676697972e-02  -9.6680839245862335e-02  -9.8977024283181544e-02  -1.0139097004929565e-01  -1.0393186606168842e-01  -1.0637172788543996e-01  -1.0837496643303912e-01  -1.1085126981927473e-01  -1.1348170276807033e-01  -1.1289939794036968e-01  -1.1404741340071281e-01  -1.1832381924157792e-01  -1.0904243028231177e-01  -1.0629519920777894e-01  -1.2088456682562390e-01  -6.5622148162336719e-02  1.2102167053747280e-02  4.0155023825815877e-03  -4.4067517646505603e-03  -1.9978315860991771e-02  -2.8625986342988213e-02  -3.3230787719645334e-02  -3.6975793082341522e-02  -4.1080628741596854e-02  -4.4410786458805890e-02  -4.6844091292638640e-02  -4.9209348675410387e-02  -5.1462335363642350e-02  -5.3385227081515260e-02  -5.5278994074629058e-02  -5.7252501168952939e-02  -5.9211170986300458e-02  -6.1253446872859482e-02  -6.3465002374012341e-02  -6.5833509306521917e-02  -6.8362045071902314e-02  -7.1045845109679595e-02  -7.3865703200032162e-02  -7.6872010667169866e-02  -7.9800731539965697e-02  -8.2321389687264643e-02  -8.5522799611107619e-02  -8.7409589054684128e-02  -8.6948453030046793e-02  -9.1740153061459412e-02  -8.8989432775223740e-02  -7.9336660736243653e-02  -9.4671676387079143e-02  -6.3188939292907045e-02  8.6466556665136130e-03  1.7773827950496193e-03  7.3094205858264755e-03  1.9872301920771320e-03  -1.7195196476246335e-03  -5.4524634274283707e-03  -8.9241924801477766e-03  -1.2086851743211977e-02  -1.4637154315758428e-02  -1.6807187347654646e-02  -1.8858966660648974e-02  -2.0739330143610128e-02  -2.2463372579422415e-02  -2.4216045989750117e-02  -2.6024879759748334e-02  -2.7914181614969107e-02  -2.9986777601887737e-02  -3.2279977584780795e-02  -3.4809452202899584e-02  -3.7596894909406313e-02  -4.0642218381210349e-02  -4.3920238244337662e-02  -4.7350407342864373e-02  -5.0986468233890622e-02  -5.4486900093531063e-02  -5.7898673698716915e-02  -6.1661736042965716e-02  -6.2466985081184583e-02  -6.5771355218294067e-02  -6.8770395059958647e-02  -5.8562310531873128e-02  -7.0054688019006620e-02  -5.6126969249017666e-02  6.1098729885799112e-03  -1.1187002288227271e-03  1.8431661943259705e-02  2.3175529106149763e-02  2.4322836664044802e-02  2.1781271161814386e-02  1.8576174949988734e-02  1.6548360294870220e-02  1.4798353125029060e-02  1.2993488344010056e-02  1.1338963496636522e-02  9.8943227295466233e-03  8.4317510757138062e-03  6.9112422869020973e-03  5.3154323538631872e-03  3.5306695681896778e-03  1.4937687436352520e-03  -8.2979574274054597e-04  -3.4977545584846353e-03  -6.5337803480606943e-03  -9.9427308845793979e-03  -1.3724072977865711e-02  -1.7828426367491160e-02  -2.2135567032613067e-02  -2.6668585424160732e-02  -3.1034831162442569e-02  -3.5748549847676413e-02  -3.9146744355022085e-02  -4.1853025146374387e-02  -4.8138456984809022e-02  -4.1575418876819661e-02  -4.8601892913455173e-02  -4.6830609789554334e-02  4.4764261196399225e-03  -3.2474047895312786e-03  2.8093162326509741e-02  4.4360017122994845e-02  4.9723201481888551e-02  4.9234933214951863e-02  4.5881500482760372e-02  4.4881409611774108e-02  4.4040062180296408e-02  4.2676191887478766e-02  4.1420658127696838e-02  4.0465348265644532e-02  3.9381677715597668e-02  3.8144074453113415e-02  3.6824059718154625e-02  3.5235237547734603e-02  3.3285486795588987e-02  3.0952568757336148e-02  2.8173055799312615e-02  2.4898745691270097e-02  2.1098255648079458e-02  1.6795015940300043e-02  1.2012545245282969e-02  6.7999265644287732e-03  1.2802368768819546e-03  -4.4832579474447867e-03  -1.0225801892691604e-02  -1.5943924065409447e-02  -2.0119164354058076e-02  -2.7605104604095019e-02  -2.6488249074337358e-02  -3.0766852726069386e-02  -3.6993671380561144e-02  3.3992391133593758e-03  -5.1757159046668241e-03  3.5175534283492030e-02  6.5119568669137484e-02  7.5020547856860353e-02  7.7096064195188621e-02  7.3655066617904053e-02  7.2896445113359479e-02  7.3179485344450818e-02  7.2360102075782931e-02  7.1477793568034007e-02  7.1005320766029001e-02  7.0441059221678287e-02  6.9575718661601435e-02  6.8557513845814835e-02  6.7268474683336271e-02  6.5513898127621123e-02  6.3227549965602939e-02  6.0361168023570000e-02  5.6847407820639621e-02  5.2649747261688112e-02  4.7786446923815139e-02  4.2267950742288195e-02  3.6093044448436619e-02  2.9389708957200372e-02  2.2221541487584175e-02  1.4866297687167721e-02  7.3505966587852625e-03  1.8489624313490217e-04  -7.7861148806606367e-03  -1.2192903233548073e-02  -1.6259472843594424e-02  -2.7661519183720954e-02  2.5953614057199277e-03  -7.0174574039086968e-03  3.8314872443618177e-02  8.3874157805073596e-02  1.0051585462562003e-01  1.0525791738974143e-01  1.0239417586232814e-01  1.0078705539480133e-01  1.0200860890960833e-01  1.0213269003934321e-01  1.0155519717970922e-01  1.0150752039369897e-01  1.0159216731323470e-01  1.0128783264087159e-01  1.0062614124675409e-01  9.9648849608806420e-02  9.8178864654491896e-02  9.6045786787150894e-02  9.3159110716395307e-02  8.9448282787319297e-02  8.4896692576306443e-02  7.9483880404825152e-02  7.3144247959286021e-02  6.5930263853609630e-02  5.7927916541032978e-02  4.9225419241601960e-02  4.0052970558374625e-02  3.0444358793197526e-02  2.0215063092884272e-02  1.0724508914306397e-02  2.1094266020735665e-03  -4.7063224277319477e-03  -1.9362661976041005e-02  1.7569051456801108e-03  -8.3141227924548779e-03  3.6628484314852661e-02  9.7701171579612014e-02  1.2543155734438624e-01  1.3357858500385561e-01  1.3212696536302540e-01  1.2922671995255031e-01  1.3026388478870865e-01  1.3181749526858932e-01  1.3187201451316066e-01  1.3203022173436429e-01  1.3274599522838734e-01  1.3328497601606695e-01  1.3325948182664402e-01  1.3268113213114913e-01  1.3150895338294513e-01  1.2958668692290171e-01  1.2676265401395387e-01  1.2295334248796247e-01  1.1808717321408332e-01  1.1206606918958428e-01  1.0486201270364452e-01  9.6569289880508932e-02  8.7179759938111764e-02  7.6787829474383604e-02  6.5735721663136681e-02  5.3498679944845778e-02  4.0411242560361209e-02  2.8203209794169959e-02  1.6571924259401800e-02  4.5028189340117417e-03  -1.2495277255711180e-02  7.2573914781804230e-04  -8.0527069555186240e-03  2.9889242542077851e-02  1.0276920923015354e-01  1.4709600137686615e-01  1.6167133229559397e-01  1.6244671380062925e-01  1.5883574235623471e-01  1.5824025084186608e-01  1.6075245666509755e-01  1.6241641694627854e-01  1.6302869172616236e-01  1.6401844768124005e-01  1.6535072140170190e-01  1.6630805389447068e-01  1.6650484230167406e-01  1.6583885024517594e-01  1.6421975012117448e-01  1.6152088504207882e-01  1.5760502593755843e-01  1.5236671656648984e-01  1.4571487383310422e-01  1.3770704050460159e-01  1.2832067881706422e-01  1.1740718084208213e-01  1.0535530813621867e-01  9.2189349613516436e-02  7.6949351141510205e-02  6.0714029783902834e-02  4.5824176573423532e-02  3.0731237890738877e-02  1.2290597305340911e-02  -7.6125509437886913e-03  -3.7513422932353911e-04  -5.8807170652456662e-03  1.9726093558620494e-02  9.5705789324904630e-02  1.6008386463051286e-01  1.8750956531742144e-01  1.9242452281881017e-01  1.8940598496716621e-01  1.8674312660386150e-01  1.8835088781165379e-01  1.9182298125299299e-01  1.9423809354458862e-01  1.9587060235177450e-01  1.9763469297605799e-01  1.9939025031694727e-01  2.0055452540028756e-01  2.0071419441442429e-01  1.9965981667608779e-01  1.9724649127897542e-01  1.9336214694038023e-01  1.8788176008058219e-01  1.8079616671523016e-01  1.7205171943006800e-01  1.6141081559708154e-01  1.4905484840552544e-01  1.3544081509681680e-01  1.1968010170977067e-01  1.0091356664327952e-01  8.1799949370821329e-02  6.4370112726433990e-02  4.4807032398975259e-02  1.9023476440378738e-02  -5.2870369853582613e-03  -1.7458036343830140e-03  -2.0900807408908827e-03  6.8887241956178940e-03  7.4917193657990017e-02  1.5765743787457212e-01  2.0614744792800319e-01  2.2112219187209992e-01  2.2056558375535623e-01  2.1701714384064408e-01  2.1647022022084081e-01  2.1999482739604195e-01  2.2479175642107752e-01  2.2868642910787496e-01  2.3165735027895024e-01  2.3413905236894819e-01  2.3603402729382716e-01  2.3695259071515817e-01  2.3653350214549