<?xml version="1.0"?>
<VTKFile type="UnstructuredGrid"  version="0.1"  >
<UnstructuredGrid>
<Piece  NumberOfPoints="16641" NumberOfCells="16384">
<Points>
<DataArray  type="Float64"  NumberOfComponents="3"  format="ascii">0 0 0  0.0078125 0 0  0.015625 0 0  0.0234375 0 0  0.03125 0 0  0.0390625 0 0  0.046875 0 0  0.0546875 0 0  0.0625 0 0  0.0703125 0 0  0.078125 0 0  0.0859375 0 0  0.09375 0 0  0.1015625 0 0  0.109375 0 0  0.1171875 0 0  0.125 0 0  0.1328125 0 0  0.140625 0 0  0.1484375 0 0  0.15625 0 0  0.1640625 0 0  0.171875 0 0  0.1796875 0 0  0.1875 0 0  0.1953125 0 0  0.203125 0 0  0.2109375 0 0  0.21875 0 0  0.2265625 0 0  0.234375 0 0  0.2421875 0 0  0.25 0 0  0.2578125 0 0  0.265625 0 0  0.2734375 0 0  0.28125 0 0  0.2890625 0 0  0.296875 0 0  0.3046875 0 0  0.3125 0 0  0.3203125 0 0  0.328125 0 0  0.3359375 0 0  0.34375 0 0  0.3515625 0 0  0.359375 0 0  0.3671875 0 0  0.375 0 0  0.3828125 0 0  0.390625 0 0  0.3984375 0 0  0.40625 0 0  0.4140625 0 0  0.421875 0 0  0.4296875 0 0  0.4375 0 0  0.4453125 0 0  0.453125 0 0  0.4609375 0 0  0.46875 0 0  0.4765625 0 0  0.484375 0 0  0.4921875 0 0  0.5 0 0  0.5078125 0 0  0.515625 0 0  0.5234375 0 0  0.53125 0 0  0.5390625 0 0  0.546875 0 0  0.5546875 0 0  0.5625 0 0  0.5703125 0 0  0.578125 0 0  0.5859375 0 0  0.59375 0 0  0.6015625 0 0  0.609375 0 0  0.6171875 0 0  0.625 0 0  0.6328125 0 0  0.640625 0 0  0.6484375 0 0  0.65625 0 0  0.6640625 0 0  0.671875 0 0  0.6796875 0 0  0.6875 0 0  0.6953125 0 0  0.703125 0 0  0.7109375 0 0  0.71875 0 0  0.7265625 0 0  0.734375 0 0  0.7421875 0 0  0.75 0 0  0.7578125 0 0  0.765625 0 0  0.7734375 0 0  0.78125 0 0  0.7890625 0 0  0.796875 0 0  0.8046875 0 0  0.8125 0 0  0.8203125 0 0  0.828125 0 0  0.8359375 0 0  0.84375 0 0  0.8515625 0 0  0.859375 0 0  0.8671875 0 0  0.875 0 0  0.8828125 0 0  0.890625 0 0  0.8984375 0 0  0.90625 0 0  0.9140625 0 0  0.921875 0 0  0.9296875 0 0  0.9375 0 0  0.9453125 0 0  0.953125 0 0  0.9609375 0 0  0.96875 0 0  0.9765625 0 0  0.984375 0 0  0.9921875 0 0  1 0 0  0 0.0078125 0  0.0078125 0.0078125 0  0.015625 0.0078125 0  0.0234375 0.0078125 0  0.03125 0.0078125 0  0.0390625 0.0078125 0  0.046875 0.0078125 0  0.0546875 0.0078125 0  0.0625 0.0078125 0  0.0703125 0.0078125 0  0.078125 0.0078125 0  0.0859375 0.0078125 0  0.09375 0.0078125 0  0.1015625 0.0078125 0  0.109375 0.0078125 0  0.1171875 0.0078125 0  0.125 0.0078125 0  0.1328125 0.0078125 0  0.140625 0.0078125 0  0.1484375 0.0078125 0  0.15625 0.0078125 0  0.1640625 0.0078125 0  0.171875 0.0078125 0  0.1796875 0.0078125 0  0.1875 0.0078125 0  0.1953125 0.0078125 0  0.203125 0.0078125 0  0.2109375 0.0078125 0  0.21875 0.0078125 0  0.2265625 0.0078125 0  0.234375 0.0078125 0  0.2421875 0.0078125 0  0.25 0.0078125 0  0.2578125 0.0078125 0  0.265625 0.0078125 0  0.2734375 0.0078125 0  0.28125 0.0078125 0  0.2890625 0.0078125 0  0.296875 0.0078125 0  0.3046875 0.0078125 0  0.3125 0.0078125 0  0.3203125 0.0078125 0  0.328125 0.0078125 0  0.3359375 0.0078125 0  0.34375 0.0078125 0  0.3515625 0.0078125 0  0.359375 0.0078125 0  0.3671875 0.0078125 0  0.375 0.0078125 0  0.3828125 0.0078125 0  0.390625 0.0078125 0  0.3984375 0.0078125 0  0.40625 0.0078125 0  0.4140625 0.0078125 0  0.421875 0.0078125 0  0.4296875 0.0078125 0  0.4375 0.0078125 0  0.4453125 0.0078125 0  0.453125 0.0078125 0  0.4609375 0.0078125 0  0.46875 0.0078125 0  0.4765625 0.0078125 0  0.484375 0.0078125 0  0.4921875 0.0078125 0  0.5 0.0078125 0  0.5078125 0.0078125 0  0.515625 0.0078125 0  0.5234375 0.0078125 0  0.53125 0.0078125 0  0.5390625 0.0078125 0  0.546875 0.0078125 0  0.5546875 0.0078125 0  0.5625 0.0078125 0  0.5703125 0.0078125 0  0.578125 0.0078125 0  0.5859375 0.0078125 0  0.59375 0.0078125 0  0.6015625 0.0078125 0  0.609375 0.0078125 0  0.6171875 0.0078125 0  0.625 0.0078125 0  0.6328125 0.0078125 0  0.640625 0.0078125 0  0.6484375 0.0078125 0  0.65625 0.0078125 0  0.6640625 0.0078125 0  0.671875 0.0078125 0  0.6796875 0.0078125 0  0.6875 0.0078125 0  0.6953125 0.0078125 0  0.703125 0.0078125 0  0.7109375 0.0078125 0  0.71875 0.0078125 0  0.7265625 0.0078125 0  0.734375 0.0078125 0  0.7421875 0.0078125 0  0.75 0.0078125 0  0.7578125 0.0078125 0  0.765625 0.0078125 0  0.7734375 0.0078125 0  0.78125 0.0078125 0  0.7890625 0.0078125 0  0.796875 0.0078125 0  0.8046875 0.0078125 0  0.8125 0.0078125 0  0.8203125 0.0078125 0  0.828125 0.0078125 0  0.8359375 0.0078125 0  0.84375 0.0078125 0  0.8515625 0.0078125 0  0.859375 0.0078125 0  0.8671875 0.0078125 0  0.875 0.0078125 0  0.8828125 0.0078125 0  0.890625 0.0078125 0  0.8984375 0.0078125 0  0.90625 0.0078125 0  0.9140625 0.0078125 0  0.921875 0.0078125 0  0.9296875 0.0078125 0  0.9375 0.0078125 0  0.9453125 0.0078125 0  0.953125 0.0078125 0  0.9609375 0.0078125 0  0.96875 0.0078125 0  0.9765625 0.0078125 0  0.984375 0.0078125 0  0.9921875 0.0078125 0  1 0.0078125 0  0 0.015625 0  0.0078125 0.015625 0  0.015625 0.015625 0  0.0234375 0.015625 0  0.03125 0.015625 0  0.0390625 0.015625 0  0.046875 0.015625 0  0.0546875 0.015625 0  0.0625 0.015625 0  0.0703125 0.015625 0  0.078125 0.015625 0  0.0859375 0.015625 0  0.09375 0.015625 0  0.1015625 0.015625 0  0.109375 0.015625 0  0.1171875 0.015625 0  0.125 0.015625 0  0.1328125 0.015625 0  0.140625 0.015625 0  0.1484375 0.015625 0  0.15625 0.015625 0  0.1640625 0.015625 0  0.171875 0.015625 0  0.1796875 0.015625 0  0.1875 0.015625 0  0.1953125 0.015625 0  0.203125 0.015625 0  0.2109375 0.015625 0  0.21875 0.015625 0  0.2265625 0.015625 0  0.234375 0.015625 0  0.2421875 0.015625 0  0.25 0.015625 0  0.2578125 0.015625 0  0.265625 0.015625 0  0.2734375 0.015625 0  0.28125 0.015625 0  0.2890625 0.015625 0  0.296875 0.015625 0  0.3046875 0.015625 0  0.3125 0.015625 0  0.3203125 0.015625 0  0.328125 0.015625 0  0.3359375 0.015625 0  0.34375 0.015625 0  0.3515625 0.015625 0  0.359375 0.015625 0  0.3671875 0.015625 0  0.375 0.015625 0  0.3828125 0.015625 0  0.390625 0.015625 0  0.3984375 0.015625 0  0.40625 0.015625 0  0.4140625 0.015625 0  0.421875 0.015625 0  0.4296875 0.015625 0  0.4375 0.015625 0  0.4453125 0.015625 0  0.453125 0.015625 0  0.4609375 0.015625 0  0.46875 0.015625 0  0.4765625 0.015625 0  0.484375 0.015625 0  0.4921875 0.015625 0  0.5 0.015625 0  0.5078125 0.015625 0  0.515625 0.015625 0  0.5234375 0.015625 0  0.53125 0.015625 0  0.5390625 0.015625 0  0.546875 0.015625 0  0.5546875 0.015625 0  0.5625 0.015625 0  0.5703125 0.015625 0  0.578125 0.015625 0  0.5859375 0.015625 0  0.59375 0.015625 0  0.6015625 0.015625 0  0.609375 0.015625 0  0.6171875 0.015625 0  0.625 0.015625 0  0.6328125 0.015625 0  0.640625 0.015625 0  0.6484375 0.015625 0  0.65625 0.015625 0  0.6640625 0.015625 0  0.671875 0.015625 0  0.6796875 0.015625 0  0.6875 0.015625 0  0.6953125 0.015625 0  0.703125 0.015625 0  0.7109375 0.015625 0  0.71875 0.015625 0  0.7265625 0.015625 0  0.734375 0.015625 0  0.7421875 0.015625 0  0.75 0.015625 0  0.7578125 0.015625 0  0.765625 0.015625 0  0.7734375 0.015625 0  0.78125 0.015625 0  0.7890625 0.015625 0  0.796875 0.015625 0  0.8046875 0.015625 0  0.8125 0.015625 0  0.8203125 0.015625 0  0.828125 0.015625 0  0.8359375 0.015625 0  0.84375 0.015625 0  0.8515625 0.015625 0  0.859375 0.015625 0  0.8671875 0.015625 0  0.875 0.015625 0  0.8828125 0.015625 0  0.890625 0.015625 0  0.8984375 0.015625 0  0.90625 0.015625 0  0.9140625 0.015625 0  0.921875 0.015625 0  0.9296875 0.015625 0  0.9375 0.015625 0  0.9453125 0.015625 0  0.953125 0.015625 0  0.9609375 0.015625 0  0.96875 0.015625 0  0.9765625 0.015625 0  0.984375 0.015625 0  0.9921875 0.015625 0  1 0.015625 0  0 0.0234375 0  0.0078125 0.0234375 0  0.015625 0.0234375 0  0.0234375 0.0234375 0  0.03125 0.0234375 0  0.0390625 0.0234375 0  0.046875 0.0234375 0  0.0546875 0.0234375 0  0.0625 0.0234375 0  0.0703125 0.0234375 0  0.078125 0.0234375 0  0.0859375 0.0234375 0  0.09375 0.0234375 0  0.1015625 0.0234375 0  0.109375 0.0234375 0  0.1171875 0.0234375 0  0.125 0.0234375 0  0.1328125 0.0234375 0  0.140625 0.0234375 0  0.1484375 0.0234375 0  0.15625 0.0234375 0  0.1640625 0.0234375 0  0.171875 0.0234375 0  0.1796875 0.0234375 0  0.1875 0.0234375 0  0.1953125 0.0234375 0  0.203125 0.0234375 0  0.2109375 0.0234375 0  0.21875 0.0234375 0  0.2265625 0.0234375 0  0.234375 0.0234375 0  0.2421875 0.0234375 0  0.25 0.0234375 0  0.2578125 0.0234375 0  0.265625 0.0234375 0  0.2734375 0.0234375 0  0.28125 0.0234375 0  0.2890625 0.0234375 0  0.296875 0.0234375 0  0.3046875 0.0234375 0  0.3125 0.0234375 0  0.3203125 0.0234375 0  0.328125 0.0234375 0  0.3359375 0.0234375 0  0.34375 0.0234375 0  0.3515625 0.0234375 0  0.359375 0.0234375 0  0.3671875 0.0234375 0  0.375 0.0234375 0  0.3828125 0.0234375 0  0.390625 0.0234375 0  0.3984375 0.0234375 0  0.40625 0.0234375 0  0.4140625 0.0234375 0  0.421875 0.0234375 0  0.4296875 0.0234375 0  0.4375 0.0234375 0  0.4453125 0.0234375 0  0.453125 0.0234375 0  0.4609375 0.0234375 0  0.46875 0.0234375 0  0.4765625 0.0234375 0  0.484375 0.0234375 0  0.4921875 0.0234375 0  0.5 0.0234375 0  0.5078125 0.0234375 0  0.515625 0.0234375 0  0.5234375 0.0234375 0  0.53125 0.0234375 0  0.5390625 0.0234375 0  0.546875 0.0234375 0  0.5546875 0.0234375 0  0.5625 0.0234375 0  0.5703125 0.0234375 0  0.578125 0.0234375 0  0.5859375 0.0234375 0  0.59375 0.0234375 0  0.6015625 0.0234375 0  0.609375 0.0234375 0  0.6171875 0.0234375 0  0.625 0.0234375 0  0.6328125 0.0234375 0  0.640625 0.0234375 0  0.6484375 0.0234375 0  0.65625 0.0234375 0  0.6640625 0.0234375 0  0.671875 0.0234375 0  0.6796875 0.0234375 0  0.6875 0.0234375 0  0.6953125 0.0234375 0  0.703125 0.0234375 0  0.7109375 0.0234375 0  0.71875 0.0234375 0  0.7265625 0.0234375 0  0.734375 0.0234375 0  0.7421875 0.0234375 0  0.75 0.0234375 0  0.7578125 0.0234375 0  0.765625 0.0234375 0  0.7734375 0.0234375 0  0.78125 0.0234375 0  0.7890625 0.0234375 0  0.796875 0.0234375 0  0.8046875 0.0234375 0  0.8125 0.0234375 0  0.8203125 0.0234375 0  0.828125 0.0234375 0  0.8359375 0.0234375 0  0.84375 0.0234375 0  0.8515625 0.0234375 0  0.859375 0.0234375 0  0.8671
[...]
<PointData  Scalars="u_sol"> 
<DataArray  type="Float64"  Name="u_sol"  format="ascii">1.0582627647477513e-06  -2.2378568480541199e-06  -1.2818703003613078e-05  -2.2104201537578412e-05  -2.7703842861764980e-05  -2.8845913635282117e-05  -2.5321593137013474e-05  -1.7362338632894563e-05  -5.6538305428331010e-06  8.7124614220181333e-06  2.4397814391279630e-05  4.0041129444180565e-05  5.4485071350970004e-05  6.6945166617241112e-05  7.7083117481073691e-05  8.4987304952829012e-05  9.1088042024403887e-05  9.6045384500253691e-05  1.0063744998126703e-04  1.0567300416041751e-04  1.1193273766646728e-04  1.2013639738982953e-04  1.3092938033068462e-04  1.4487195418974851e-04  1.6242627756944065e-04  1.8397093420911622e-04  2.0984767134430766e-04  2.4038481465383772e-04  2.7592675727645309e-04  3.1700255709514225e-04  3.6455088821175756e-04  4.1984361075713056e-04  4.8425681632038766e-04  5.5925127198933175e-04  6.4682229039452724e-04  7.4923130558160369e-04  8.6889202471090738e-04  1.0072243945435514e-03  1.1658599793515491e-03  1.3459966636843648e-03  1.5493878630693431e-03  1.7769200474256487e-03  2.0274817150953590e-03  2.2985760031996086e-03  2.5859901312889001e-03  2.8839650803353404e-03  3.1846380126568374e-03  3.4767751097394329e-03  3.7442111190782446e-03  3.9650772808024256e-03  4.1128576945608846e-03  4.1591804017892305e-03  4.0774206974305395e-03  3.8460579539701632e-03  3.4510831457408727e-03  2.8872326862998134e-03  2.1581723299504271e-03  1.2759302940330008e-03  2.5990062676081710e-04  -8.6431603573112266e-04  -2.0660588283256940e-03  -3.3107438573458264e-03  -4.5605836742846212e-03  -5.7769204693984277e-03  -6.9158739919016211e-03  -7.9194042955970604e-03  -8.7414551480962440e-03  -9.3408236537691185e-03  -9.6756150983479412e-03  -9.7128079591021956e-03  -9.4249032320739001e-03  -8.7956527561510265e-03  -7.8208844363618184e-03  -6.5124699576278883e-03  -4.8996476311192229e-03  -3.0307655683623892e-03  -9.7256633703013114e-04  1.1918976285060557e-03  3.3678644008025122e-03  5.4552908727757447e-03  7.3567372332396424e-03  8.9857295873768915e-03  1.0274403463650529e-02  1.1179253831226345e-02  1.1683877895121309e-02  1.1798750765559585e-02  1.1557617049950517e-02  1.1011932872001222e-02  1.0223254016093463e-02  9.2567326369679750e-03  8.1722478886409114e-03  7.0270970813654729e-03  5.8856747333179043e-03  4.7744775757989789e-03  3.6982706720926034e-03  2.6816539535622886e-03  1.7544329059971653e-03  9.4188796052678536e-04  2.6965920546698018e-04  -2.4194748032692258e-04  -5.8690821563421407e-04  -7.7805011538198984e-04  -8.4485437766432063e-04  -8.2456624096898467e-04  -7.5234152954200043e-04  -6.5570719843300316e-04  -5.5340465773119814e-04  -4.5655328817362093e-04  -3.7084311528643067e-04  -2.9862416058840053e-04  -2.3961958823153005e-04  -1.9232480824371705e-04  -1.5526024462215565e-04  -1.2685571624806698e-04  -1.0553740774137403e-04  -8.9803630008073265e-05  -7.8193423880969511e-05  -6.9326210788107421e-05  -6.1943432436983723e-05  -5.4962504309624165e-05  -4.7537513266015365e-05  -3.9123148197409170e-05  -2.9537595071001056e-05  -1.9022921494591901e-05  -8.2783165736157149e-06  1.3517171230176855e-06  7.9565384151529073e-06  7.1246965003334796e-06  -7.9346992565710991e-07  6.0304548374354169e-06  -3.2540022153412741e-05  -8.9853714185701892e-05  -1.0606377216467276e-04  -4.6934073731186116e-05  1.0532661129884145e-04  3.5481714714380083e-04  6.9456834312462779e-04  1.1085736519572406e-03  1.5744203917587639e-03  2.0665010445326307e-03  2.5594544485504881e-03  3.0312870379038104e-03  3.4656848821326830e-03  3.8532454104672821e-03  4.1915980580548998e-03  4.4845989783034940e-03  4.7409109389042374e-03  4.9723091857741403e-03  5.1919872480727580e-03  5.4130447317948978e-03  5.6472346834091627e-03  5.9039743186450047e-03  6.1896149746003808e-03  6.5069643007329781e-03  6.8550374390017590e-03  7.2290906794162009e-03  7.6210672227524064e-03  8.0203376202097072e-03  8.4142964067294088e-03  8.7886084436157048e-03  9.1272948408452400e-03  9.4121672790370842e-03  9.6210997107839830e-03  9.7252568351650741e-03  9.6877394968711630e-03  9.4628032201483202e-03  8.9969114401476907e-03  8.2269438252198703e-03  7.0802885579887053e-03  5.4750084059292971e-03  3.3233643843701014e-03  5.3574153750103593e-04  -2.9768351149235799e-03  -7.2986186863110269e-03  -1.2501946827621792e-02  -1.8637154782160128e-02  -2.5721848267197332e-02  -3.3732788502289335e-02  -4.2602456247800596e-02  -5.2220458046345529e-02  -6.2439037112396241e-02  -7.3081385282640382e-02  -8.3951298213365888e-02  -9.4842805028197114e-02  -1.0554872017003344e-01  -1.1586746207870738e-01  -1.2560789301087791e-01  -1.3459225672636055e-01  -1.4265751987140510e-01  -1.4965554046282123e-01  -1.5545246168703317e-01  -1.5992802704272505e-01  -1.6297371152828327e-01  -1.6449464901628411e-01  -1.6441403412333072e-01  -1.6266217247078946e-01  -1.5919189538005490e-01  -1.5397525259407102e-01  -1.4700384647693146e-01  -1.3829742878475165e-01  -1.2790664094820989e-01  -1.1591960639903025e-01  -1.0246543162002529e-01  -8.7718346791054211e-02  -7.1898540620287638e-02  -5.5271172528667374e-02  -3.8141336823652845e-02  -2.0845723913902537e-02  -3.7403376563713785e-03  1.2814689559495227e-02  2.8472268604415579e-02  4.2915889645935207e-02  5.5875711393379310e-02  6.7141637759848508e-02  7.6571225552761885e-02  8.4092557485448235e-02  8.9700561443111906e-02  9.3448386725753202e-02  9.5432967342344868e-02  9.5779313581134784e-02  9.4627515666750539e-02  9.2105124041849687e-02  8.8340650602548171e-02  8.3457591325017025e-02  7.7553521382155863e-02  7.0731080753115294e-02  6.3132809056376041e-02  5.4959425691538048e-02  4.6484123154582897e-02  3.8046653579506845e-02  3.0017010357574918e-02  2.2736170097503779e-02  1.6454154792236251e-02  1.1291779400041543e-02  7.2406842758794528e-03  4.1952314081227264e-03  1.9958659574719172e-03  4.6763333885802851e-04  -5.5319448267353907e-04  -1.2064535702414414e-03  -1.6040398439701993e-03  -1.8302852504370336e-03  -1.9456616343443251e-03  -1.9906397632270608e-03  -1.9895073176742829e-03  -1.9543324984946128e-03  -1.8887270408664118e-03  -1.7913749125395091e-03  -1.6591858590045653e-03  -1.4899961258779452e-03  -1.2847714120860936e-03  -1.0492536200767092e-03  -7.9501198552503439e-04  -5.3977274737915986e-04  -3.0714900556494591e-04  -1.2449736188945931e-04  -1.9706317606210484e-05  4.4659759475028582e-06  5.8088946606589358e-06  -3.1423514032788252e-05  -6.4775775048377259e-05  -1.9374002113094121e-05  1.4877004724774388e-04  4.6386808718711824e-04  9.2962143504740581e-04  1.5327248444429765e-03  2.2463310482460225e-03  3.0346311199427318e-03  3.8579267812779341e-03  4.6776811911679299e-03  5.4608566667257458e-03  6.1830168356669379e-03  6.8299009398668873e-03  7.3974965635451558e-03  7.8908614639513867e-03  8.3220809952661099e-03  8.7077708567974213e-03  9.0664967219236982e-03  9.4163632565510812e-03  9.7729253278120744e-03  1.0147487754693249e-02  1.0545752773559082e-02  1.0966810257024825e-02  1.1402607338904058e-02  1.1837885086805640e-02  1.2250280411797938e-02  1.2610620043864732e-02  1.2883701734546043e-02  1.3028688326566557e-02  1.2997447557545712e-02  1.2731676013155542e-02  1.2160643124106961e-02  1.1200020403438451e-02  9.7487912049166302e-03  7.6875332736198948e-03  4.8789770900368916e-03  1.1739774093334665e-03  -3.5828954796435835e-03  -9.5470370874291000e-03  -1.6862983737188631e-02  -2.5648117593440569e-02  -3.5972469519971961e-02  -4.7837884019292481e-02  -6.1164277194161489e-02  -7.5785926150865199e-02  -9.1459372258565166e-02  -1.0788042016002590e-01  -1.2470668062142147e-01  -1.4158231291516854e-01  -1.5816128726249609e-01  -1.7412620164553355e-01  -1.8920094314770697e-01  -2.0315696006373143e-01  -2.1581400894978098e-01  -2.2703683236312586e-01  -2.3672932195978372e-01  -2.4482752789970214e-01  -2.5129253203462243e-01  -2.5610385153593052e-01  -2.5925375155593017e-01  -2.6074253096850314e-01  -2.6057536246217522e-01  -2.5876057100578703e-01  -2.5531216120189065e-01  -2.5024787557760336e-01  -2.4357177416793296e-01  -2.3529531321836314e-01  -2.2543734393243064e-01  -2.1402708478766913e-01  -2.0110905284495800e-01  -1.8674792174433166e-01  -1.7103421140217606e-01  -1.5408894992030014e-01  -1.3606786771039206e-01  -1.1716311372363614e-01  -9.7602700030735234e-02  -7.7646185484996272e-02  -5.7577074501420515e-02  -3.7691750603447115e-02  -1.8286356382460907e-02  3.5697067774918627e-04  1.7982626472635592e-02  3.4371397842965112e-02  4.9346389462114171e-02  6.2774835881930724e-02  7.4566496826197468e-02  8.4668520593951982e-02  9.3059639205162456e-02  9.9744382057958270e-02  1.0472916969340940e-01  1.0801924117567364e-01  1.0961446688300916e-01  1.0949671514976532e-01  1.0764178049577655e-01  1.0401539564539337e-01  9.8585827817076893e-02  9.1374266520637501e-02  8.2512185775864680e-02  7.2293969456932769e-02  6.1202069238235589e-02  4.9873099312467528e-02  3.8996540766884656e-02  2.9175775603681429e-02  2.0811287337298392e-02  1.4055553401923096e-02  8.8473101066420517e-03  4.9899178587039569e-03  2.2299729883285052e-03  3.1415245896623399e-04  -9.7937092887601801e-04  -1.8297153136670929e-03  -2.3720766975442488e-03  -2.7023374410537608e-03  -2.8840869969124542e-03  -2.9558877840616853e-03  -2.9384976069723751e-03  -2.8414538875170398e-03  -2.6688222987705096e-03  -2.4239975468784273e-03  -2.1134887834485848e-03  -1.7496666371516795e-03  -1.3523896640828057e-03  -9.4944655195038855e-04  -5.7536917105908720e-04  -2.6850052998757089e-04  -6.3523619080131270e-05  1.2430666657810945e-05  2.4234923851699537e-06  -1.3365141198103777e-05  1.0271960416173841e-05  1.5044645580360893e-04  4.5263694324838155e-04  9.3917749224864497e-04  1.6086068118054619e-03  2.4391379652933471e-03  3.3933547266682428e-03  4.4243439632633656e-03  5.4822639317740497e-03  6.5204930219911507e-03  7.5005214121035791e-03  8.3950702159105925e-03  9.1893170558506702e-03  9.8803895869529167e-03  1.0475511720754950e-02  1.0989285136832156e-02  1.1440555395628941e-02  1.1849227579869606e-02  1.2233298156259495e-02  1.2606216621859078e-02  1.2974590033381960e-02  1.3336353692996131e-02  1.3679407147588642e-02  1.3980417870815640e-02  1.4203961941069078e-02  1.4302671683843728e-02  1.4217525287360283e-02  1.3876446101386636e-02  1.3192355714956142e-02  1.2062309318720259e-02  1.0364679736858826e-02  7.9535780602739605e-03  4.6563016557497755e-03  2.7779285921373148e-04  -5.3928192628180452e-03  -1.2573565924020817e-02  -2.1473587526852467e-02  -3.2269625529302744e-02  -4.5073713901788048e-02  -5.9901175219060313e-02  -7.6644933094878076e-02  -9.5064104203858205e-02  -1.1479518553886976e-01  -1.3538304906634668e-01  -1.5632654136290744e-01  -1.7712729069725835e-01  -1.9733225087160955e-01  -2.1656351890567824e-01  -2.3453311822425596e-01  -2.5104407295915548e-01  -2.6598126475039446e-01  -2.7929627948800462e-01  -2.9099004358819297e-01  -3.0109605981111526e-01  -3.0966593632170120e-01  -3.1675794341350799e-01  -3.2242864942558080e-01  -3.2672728962830483e-01  -3.2969234997432451e-01  -3.3134984957939262e-01  -3.3171287677484007e-01  -3.3078209248561102e-01  -3.2854616794924646e-01  -3.2497694094591434e-01  -3.2003407286045404e-01  -3.1368501404437626e-01  -3.0589087172744411e-01  -2.9661500001631880e-01  -2.8582605469353911e-01  -2.7350489681319806e-01  -2.5965053468485183e-01  -2.4428824778605499e-01  -2.2747740007776976e-01  -2.0931930278873281e-01  -1.8996345462903183e-01  -1.6961089569901205e-01  -1.4851322745201045e-01  -1.2696587684578498e-01  -1.0529530258308060e-01  -8.3840547535265667e-02  -6.2931262708421448e-02  -4.2865227063805668e-02  -2.3889445025104747e-02  -6.1872537967459758e-03  1.0125417404618047e-02  2.4995694085828385e-02  3.8422137678064440e-02  5.0439047919845471e-02  6.1095550298192178e-02  7.0452358210492505e-02  7.8564648875702886e-02  8.5443033354446973e-02  9.1044348707769646e-02  9.5261783030376398e-02  9.7927341249046382e-02  9.8820744348118494e-02  9.7681171089132518e-02  9.4261991531203085e-02  8.8425420997516366e-02  8.0254109124695730e-02  7.0141831175392230e-02  5.8802375001010800e-02  4.7155983600530131e-02  3.6118028484643856e-02  2.6386378628702422e-02  1.8327771456521598e-02  1.1993718593574246e-02  7.2197808945423138e-03  3.7393017300421305e-03  1.2675845890217257e-03  -4.5067994645830301e-04  -1.6222859051593437e-03  -2.4027260512316422e-03  -2.9014614197086165e-03  -3.1909592474314509e-03  -3.3162589863613336e-03  -3.3040483888419178e-03  -3.1705840221146336e-03  -2.9282188283261111e-03  -2.5905112761736961e-03  -2.1759087304898100e-03  -1.7099941590707456e-03  -1.2262591251149726e-03  -7.6511446733119133e-04  -3.7185000155319021e-04  -9.2285050441917206e-05  1.8179925257567307e-05  -2.0694876846788457e-06  9.3554511306727703e-06  1.0729545774079870e-04  3.6350855833218102e-04  8.1986651702451092e-04  1.4919879791046493e-03  2.3685860265543553e-03  3.4155635091054695e-03  4.5822273172036404e-03  5.8092797885891789e-03  7.0371164280326505e-03  8.2130655659057444e-03  9.2965607268436379e-03  1.0261771674898272e-02  1.1097760093048534e-02  1.1806655548043889e-02  1.2400522465759501e-02  1.2897543757231681e-02  1.3318045984978415e-02  1.3680685026937546e-02  1.3998923288311423e-02  1.4277922857091199e-02  1.4511933227634988e-02  1.4681826399436694e-02  1.4752829858162113e-02  1.4673275701376083e-02  1.4373751253367125e-02  1.3764995959496998e-02  1.2736425879596452e-02  1.1156327863736685e-02  8.8685413135106902e-03  5.6861515663172530e-03  1.3901281143862039e-03  -4.2668889238732114e-03  -1.1554428514952806e-02  -2.0747459645138359e-02  -3.2098198328713232e-02  -4.5797197143904324e-02  -6.1930057472600469e-02  -8.0431047167811145e-02  -1.0105428945046240e-01  -1.2337454374701254e-01  -1.4682478299635521e-01  -1.7076275367129692e-01  -1.9454773284178703e-01  -2.1761018629554363e-01  -2.3949925391379959e-01  -2.5990346330718866e-01  -2.7864683341140312e-01  -2.9566765607592116e-01  -3.1098853964861906e-01  -3.2468530748932400e-01  -3.3685989828788065e-01  -3.4761983138110447e-01  -3.5706465626859685e-01  -3.6527848168264937e-01  -3.7232706260433263e-01  -3.7825786223940522e-01  -3.8310173664761960e-01  -3.8687524576899085e-01  -3.8958294787442233e-01  -3.9121930216466344e-01  -3.9177007946052678e-01  -3.9121298125427084e-01  -3.8951807782719378e-01  -3.8665393313089014e-01  -3.8258634507507144e-01  -3.7726407006048179e-01  -3.7063171099572256e-01  -3.6262667227102396e-01  -3.5318369054634796e-01  -3.4223685948120180e-01  -3.2972626210953249e-01  -3.1560468743441139e-01  -2.9984793722193814e-01  -2.8246620445712989e-01  -2.6351722775726949e-01  -2.4311877219427264e-01  -2.2145874059196971e-01  -1.9879981739160221e-01  -1.7547595796495621e-01  -1.5187867486313944e-01  -1.2843282295967284e-01  -1.0556407252738971e-01  -8.3662583567031712e-02  -6.3049459509533751e-02  -4.3951812140988637e-02  -2.6491772158930907e-02  -1.0689307507963359e-02  3.5215171657944455e-03  1.6270542232853697e-02  2.7713257099159401e-02  3.8006635706970500e-02  4.7315072819250278e-02  5.5771173394431342e-02  6.3425038352856247e-02  7.0221830363401155e-02  7.5987136257990487e-02  8.0423251815558261e-02  8.3118757021825029e-02  8.3599686596117231e-02  8.1446183254008958e-02  7.6458475948039506e-02  6.8820252091479031e-02  5.9167466680835536e-02  4.8487418889254834e-02  3.7862884884194918e-02  2.8186006987725935e-02  1.9986229999811055e-02  1.3424663166216258e-02  8.3989982100122988e-03  4.6730328500687382e-03  1.9763674516243110e-03  6.0713124188764042e-05  -1.2763447109711257e-03  -2.1870355322364350e-03  -2.7787061044438127e-03  -3.1232815007271333e-03  -3.2673946321477181e-03  -3.2417101461121272e-03  -3.0688135975842907e-03  -2.7694668842696045e-03  -2.3672695243440100e-03  -1.8917497975383839e-03  -1.3799824890739576e-03  -8.7664991880014053e-04  -4.3384316890219974e-04  -1.0933670073021091e-04  2.1554076164135278e-05  -6.9266870614385586e-06  3.3748281044412504e-05  2.1576791820822057e-04  6.0590991574783202e-04  1.2388771603941597e-03  2.1191269230472001e-03  3.2201885463593654e-03  4.4901143901612556e-03  5.8600487519550612e-03  7.2549811029053932e-03  8.6043410746952584e-03  9.8505300001799981e-03  1.0954063163035880e-02  1.1894984837439136e-02  1.2671068130459316e-02  1.3293800913294516e-02  1.3783221227096290e-02  1.4162474971479809e-02  1.4452591333348492e-02  1.4667742873410730e-02  1.4811158566313711e-02  1.4871457268754199e-02  1.4819151481552833e-02  1.4604058764463475e-02  1.4153232284989317e-02  1.3367777440497748e-02  1.2120650901080811e-02  1.0256980517633503e-02  7.5911277293415416e-03  3.9016621206854111e-03  -1.0687760777020336e-03  -7.6122597668230379e-03  -1.6049395632399932e-02  -2.6706247208201497e-02  -3.9874486706363309e-02  -5.5761473020226424e-02  -7.4427955013529307e-02  -9.5730328253261346e-02  -1.1928941237711611e-01  -1.4450953598895630e-01  -1.7064660763709752e-01  -1.9691038424921103e-01  -2.2257028850761418e-01  -2.4703683425356468e-01  -2.6990382926446060e-01  -2.9094985912662513e-01  -3.1010972519141883e-01  -3.2743014614992372e-01  -3.4302345778025622e-01  -3.5702864422688679e-01  -3.6958411797750490e-01  -3.8081243384016228e-01  -3.9081460037436211e-01  -3.9967066589935429e-01  -4.0744346993626185e-01  -4.1418322328077029e-01  -4.1993151277088164e-01  -4.2472410152420709e-01  -4.2859243339427933e-01  -4.3156403813231847e-01  -4.3366213600496223e-01  -4.3490475030165493e-01  -4.3530350282515584e-01  -4.3486248079674245e-01  -4.3357730302728814e-01  -4.3142982003803815e-01  -4.2838592876841258e-01  -4.2440333659119067e-01  -4.1942318065243422e-01  -4.1337208279828325e-01  -4.0615985475394867e-01  -3.9768140661195345e-01  -3.8781789378174575e-01  -3.7644208895390968e-01  -3.6342574622767282e-01  -3.4865191994148026e-01  -3.3203099415497156e-01  -3.1352109573541087e-01  -2.9315053027585547e-01  -2.7103968838394649e-01  -2.4741767021016009e-01  -2.2262860310535737e-01  -1.9712279165135052e-01  -1.7143013902266921e-01  -1.4611698259324843e-01  -1.2173185222560864e-01  -9.8749816215057254e-02  -7.7525893184220693e-02  -5.8267104334206170e-02  -4.1027611105378968e-02  -2.5725804037797655e-02  -1.2170923825286433e-02  -1.0646996178941433e-04  1.0729578740445318e-02  2.0587780253111150e-02  2.9702611357126357e-02  3.8239788963123980e-02  4.6247175272354703e-02  5.3626201909277471e-02  6.0108663258313662e-02  6.5252551121585775e-02  6.8480886161978255e-02  6.9201789667491659e-02  6.7007165377599293e-02  6.1890528387923652e-02  5.4364002377091609e-02  4.5373398255553934e-02  3.6024097778960783e-02  2.7263686492002354e-02  1.9686673524005837e-02  1.3518185211880928e-02  8.7152295187741518e-03  5.0928924532458644e-03  2.4227171218904522e-03  4.8948051372388411e-04  -8.8431134737322083e-04  -1.8331080467456952e-03  -2.4527843659024827e-03  -2.8091352450747178e-03  -2.9471209150716917e-03  -2.8993390329867161e-03  -2.6931370080272377e-03  -2.3562094508474273e-03  -1.9207102286368165e-03  -1.4260206844014377e-03  -9.2017459666697251e-04  -4.6130467395453243e-04  -1.1719260730724754e-04  2.3158575719248585e-05  -1.2137863527423833e-05  5.9586303569069562e-05  3.3614424067659354e-04  8.8105641930523774e-04  1.7193124378273895e-03  2.8390601033570985e-03  4.1917210794568472e-03  5.7000456655866413e-03  7.2706392342430388e-03  8.8087709072261142e-03  1.0232047141311094e-02  1.1480144294521424e-02  1.2519100882744256e-02  1.3340338388434698e-02  1.3955721862663374e-02  1.4390360749620695e-02  1.4674676388299284e-02  1.4836713839768189e-02  1.4895294341701209e-02  1.4854108308816975e-02  1.4696445622679029e-02  1.4380942777249828e-02  1.3838460490841741e-02  1.2968221604570141e-02  1.1634534860506605e-02  9.6663915078960896e-03  6.8550960650798519e-03  2.9506426339311487e-03  -2.3368527546520973e-03  -9.3362157492930115e-03  -1.8409406523101655e-02  -2.9926702840812804e-02  -4.4223475739225769e-02  -6.1537571979924773e-02  -8.1928921637392280e-02  -1.0520498808653751e-01  -1.3088743396670804e-01  -1.5824217340559227e-01  -1.8637655472346190e-01