<?xml version="1.0"?>
<VTKFile type="UnstructuredGrid"  version="0.1"  >
<UnstructuredGrid>
<Piece  NumberOfPoints="16641" NumberOfCells="16384">
<Points>
<DataArray  type="Float64"  NumberOfComponents="3"  format="ascii">0 0 0  0.0078125 0 0  0.015625 0 0  0.0234375 0 0  0.03125 0 0  0.0390625 0 0  0.046875 0 0  0.0546875 0 0  0.0625 0 0  0.0703125 0 0  0.078125 0 0  0.0859375 0 0  0.09375 0 0  0.1015625 0 0  0.109375 0 0  0.1171875 0 0  0.125 0 0  0.1328125 0 0  0.140625 0 0  0.1484375 0 0  0.15625 0 0  0.1640625 0 0  0.171875 0 0  0.1796875 0 0  0.1875 0 0  0.1953125 0 0  0.203125 0 0  0.2109375 0 0  0.21875 0 0  0.2265625 0 0  0.234375 0 0  0.2421875 0 0  0.25 0 0  0.2578125 0 0  0.265625 0 0  0.2734375 0 0  0.28125 0 0  0.2890625 0 0  0.296875 0 0  0.3046875 0 0  0.3125 0 0  0.3203125 0 0  0.328125 0 0  0.3359375 0 0  0.34375 0 0  0.3515625 0 0  0.359375 0 0  0.3671875 0 0  0.375 0 0  0.3828125 0 0  0.390625 0 0  0.3984375 0 0  0.40625 0 0  0.4140625 0 0  0.421875 0 0  0.4296875 0 0  0.4375 0 0  0.4453125 0 0  0.453125 0 0  0.4609375 0 0  0.46875 0 0  0.4765625 0 0  0.484375 0 0  0.4921875 0 0  0.5 0 0  0.5078125 0 0  0.515625 0 0  0.5234375 0 0  0.53125 0 0  0.5390625 0 0  0.546875 0 0  0.5546875 0 0  0.5625 0 0  0.5703125 0 0  0.578125 0 0  0.5859375 0 0  0.59375 0 0  0.6015625 0 0  0.609375 0 0  0.6171875 0 0  0.625 0 0  0.6328125 0 0  0.640625 0 0  0.6484375 0 0  0.65625 0 0  0.6640625 0 0  0.671875 0 0  0.6796875 0 0  0.6875 0 0  0.6953125 0 0  0.703125 0 0  0.7109375 0 0  0.71875 0 0  0.7265625 0 0  0.734375 0 0  0.7421875 0 0  0.75 0 0  0.7578125 0 0  0.765625 0 0  0.7734375 0 0  0.78125 0 0  0.7890625 0 0  0.796875 0 0  0.8046875 0 0  0.8125 0 0  0.8203125 0 0  0.828125 0 0  0.8359375 0 0  0.84375 0 0  0.8515625 0 0  0.859375 0 0  0.8671875 0 0  0.875 0 0  0.8828125 0 0  0.890625 0 0  0.8984375 0 0  0.90625 0 0  0.9140625 0 0  0.921875 0 0  0.9296875 0 0  0.9375 0 0  0.9453125 0 0  0.953125 0 0  0.9609375 0 0  0.96875 0 0  0.9765625 0 0  0.984375 0 0  0.9921875 0 0  1 0 0  0 0.0078125 0  0.0078125 0.0078125 0  0.015625 0.0078125 0  0.0234375 0.0078125 0  0.03125 0.0078125 0  0.0390625 0.0078125 0  0.046875 0.0078125 0  0.0546875 0.0078125 0  0.0625 0.0078125 0  0.0703125 0.0078125 0  0.078125 0.0078125 0  0.0859375 0.0078125 0  0.09375 0.0078125 0  0.1015625 0.0078125 0  0.109375 0.0078125 0  0.1171875 0.0078125 0  0.125 0.0078125 0  0.1328125 0.0078125 0  0.140625 0.0078125 0  0.1484375 0.0078125 0  0.15625 0.0078125 0  0.1640625 0.0078125 0  0.171875 0.0078125 0  0.1796875 0.0078125 0  0.1875 0.0078125 0  0.1953125 0.0078125 0  0.203125 0.0078125 0  0.2109375 0.0078125 0  0.21875 0.0078125 0  0.2265625 0.0078125 0  0.234375 0.0078125 0  0.2421875 0.0078125 0  0.25 0.0078125 0  0.2578125 0.0078125 0  0.265625 0.0078125 0  0.2734375 0.0078125 0  0.28125 0.0078125 0  0.2890625 0.0078125 0  0.296875 0.0078125 0  0.3046875 0.0078125 0  0.3125 0.0078125 0  0.3203125 0.0078125 0  0.328125 0.0078125 0  0.3359375 0.0078125 0  0.34375 0.0078125 0  0.3515625 0.0078125 0  0.359375 0.0078125 0  0.3671875 0.0078125 0  0.375 0.0078125 0  0.3828125 0.0078125 0  0.390625 0.0078125 0  0.3984375 0.0078125 0  0.40625 0.0078125 0  0.4140625 0.0078125 0  0.421875 0.0078125 0  0.4296875 0.0078125 0  0.4375 0.0078125 0  0.4453125 0.0078125 0  0.453125 0.0078125 0  0.4609375 0.0078125 0  0.46875 0.0078125 0  0.4765625 0.0078125 0  0.484375 0.0078125 0  0.4921875 0.0078125 0  0.5 0.0078125 0  0.5078125 0.0078125 0  0.515625 0.0078125 0  0.5234375 0.0078125 0  0.53125 0.0078125 0  0.5390625 0.0078125 0  0.546875 0.0078125 0  0.5546875 0.0078125 0  0.5625 0.0078125 0  0.5703125 0.0078125 0  0.578125 0.0078125 0  0.5859375 0.0078125 0  0.59375 0.0078125 0  0.6015625 0.0078125 0  0.609375 0.0078125 0  0.6171875 0.0078125 0  0.625 0.0078125 0  0.6328125 0.0078125 0  0.640625 0.0078125 0  0.6484375 0.0078125 0  0.65625 0.0078125 0  0.6640625 0.0078125 0  0.671875 0.0078125 0  0.6796875 0.0078125 0  0.6875 0.0078125 0  0.6953125 0.0078125 0  0.703125 0.0078125 0  0.7109375 0.0078125 0  0.71875 0.0078125 0  0.7265625 0.0078125 0  0.734375 0.0078125 0  0.7421875 0.0078125 0  0.75 0.0078125 0  0.7578125 0.0078125 0  0.765625 0.0078125 0  0.7734375 0.0078125 0  0.78125 0.0078125 0  0.7890625 0.0078125 0  0.796875 0.0078125 0  0.8046875 0.0078125 0  0.8125 0.0078125 0  0.8203125 0.0078125 0  0.828125 0.0078125 0  0.8359375 0.0078125 0  0.84375 0.0078125 0  0.8515625 0.0078125 0  0.859375 0.0078125 0  0.8671875 0.0078125 0  0.875 0.0078125 0  0.8828125 0.0078125 0  0.890625 0.0078125 0  0.8984375 0.0078125 0  0.90625 0.0078125 0  0.9140625 0.0078125 0  0.921875 0.0078125 0  0.9296875 0.0078125 0  0.9375 0.0078125 0  0.9453125 0.0078125 0  0.953125 0.0078125 0  0.9609375 0.0078125 0  0.96875 0.0078125 0  0.9765625 0.0078125 0  0.984375 0.0078125 0  0.9921875 0.0078125 0  1 0.0078125 0  0 0.015625 0  0.0078125 0.015625 0  0.015625 0.015625 0  0.0234375 0.015625 0  0.03125 0.015625 0  0.0390625 0.015625 0  0.046875 0.015625 0  0.0546875 0.015625 0  0.0625 0.015625 0  0.0703125 0.015625 0  0.078125 0.015625 0  0.0859375 0.015625 0  0.09375 0.015625 0  0.1015625 0.015625 0  0.109375 0.015625 0  0.1171875 0.015625 0  0.125 0.015625 0  0.1328125 0.015625 0  0.140625 0.015625 0  0.1484375 0.015625 0  0.15625 0.015625 0  0.1640625 0.015625 0  0.171875 0.015625 0  0.1796875 0.015625 0  0.1875 0.015625 0  0.1953125 0.015625 0  0.203125 0.015625 0  0.2109375 0.015625 0  0.21875 0.015625 0  0.2265625 0.015625 0  0.234375 0.015625 0  0.2421875 0.015625 0  0.25 0.015625 0  0.2578125 0.015625 0  0.265625 0.015625 0  0.2734375 0.015625 0  0.28125 0.015625 0  0.2890625 0.015625 0  0.296875 0.015625 0  0.3046875 0.015625 0  0.3125 0.015625 0  0.3203125 0.015625 0  0.328125 0.015625 0  0.3359375 0.015625 0  0.34375 0.015625 0  0.3515625 0.015625 0  0.359375 0.015625 0  0.3671875 0.015625 0  0.375 0.015625 0  0.3828125 0.015625 0  0.390625 0.015625 0  0.3984375 0.015625 0  0.40625 0.015625 0  0.4140625 0.015625 0  0.421875 0.015625 0  0.4296875 0.015625 0  0.4375 0.015625 0  0.4453125 0.015625 0  0.453125 0.015625 0  0.4609375 0.015625 0  0.46875 0.015625 0  0.4765625 0.015625 0  0.484375 0.015625 0  0.4921875 0.015625 0  0.5 0.015625 0  0.5078125 0.015625 0  0.515625 0.015625 0  0.5234375 0.015625 0  0.53125 0.015625 0  0.5390625 0.015625 0  0.546875 0.015625 0  0.5546875 0.015625 0  0.5625 0.015625 0  0.5703125 0.015625 0  0.578125 0.015625 0  0.5859375 0.015625 0  0.59375 0.015625 0  0.6015625 0.015625 0  0.609375 0.015625 0  0.6171875 0.015625 0  0.625 0.015625 0  0.6328125 0.015625 0  0.640625 0.015625 0  0.6484375 0.015625 0  0.65625 0.015625 0  0.6640625 0.015625 0  0.671875 0.015625 0  0.6796875 0.015625 0  0.6875 0.015625 0  0.6953125 0.015625 0  0.703125 0.015625 0  0.7109375 0.015625 0  0.71875 0.015625 0  0.7265625 0.015625 0  0.734375 0.015625 0  0.7421875 0.015625 0  0.75 0.015625 0  0.7578125 0.015625 0  0.765625 0.015625 0  0.7734375 0.015625 0  0.78125 0.015625 0  0.7890625 0.015625 0  0.796875 0.015625 0  0.8046875 0.015625 0  0.8125 0.015625 0  0.8203125 0.015625 0  0.828125 0.015625 0  0.8359375 0.015625 0  0.84375 0.015625 0  0.8515625 0.015625 0  0.859375 0.015625 0  0.8671875 0.015625 0  0.875 0.015625 0  0.8828125 0.015625 0  0.890625 0.015625 0  0.8984375 0.015625 0  0.90625 0.015625 0  0.9140625 0.015625 0  0.921875 0.015625 0  0.9296875 0.015625 0  0.9375 0.015625 0  0.9453125 0.015625 0  0.953125 0.015625 0  0.9609375 0.015625 0  0.96875 0.015625 0  0.9765625 0.015625 0  0.984375 0.015625 0  0.9921875 0.015625 0  1 0.015625 0  0 0.0234375 0  0.0078125 0.0234375 0  0.015625 0.0234375 0  0.0234375 0.0234375 0  0.03125 0.0234375 0  0.0390625 0.0234375 0  0.046875 0.0234375 0  0.0546875 0.0234375 0  0.0625 0.0234375 0  0.0703125 0.0234375 0  0.078125 0.0234375 0  0.0859375 0.0234375 0  0.09375 0.0234375 0  0.1015625 0.0234375 0  0.109375 0.0234375 0  0.1171875 0.0234375 0  0.125 0.0234375 0  0.1328125 0.0234375 0  0.140625 0.0234375 0  0.1484375 0.0234375 0  0.15625 0.0234375 0  0.1640625 0.0234375 0  0.171875 0.0234375 0  0.1796875 0.0234375 0  0.1875 0.0234375 0  0.1953125 0.0234375 0  0.203125 0.0234375 0  0.2109375 0.0234375 0  0.21875 0.0234375 0  0.2265625 0.0234375 0  0.234375 0.0234375 0  0.2421875 0.0234375 0  0.25 0.0234375 0  0.2578125 0.0234375 0  0.265625 0.0234375 0  0.2734375 0.0234375 0  0.28125 0.0234375 0  0.2890625 0.0234375 0  0.296875 0.0234375 0  0.3046875 0.0234375 0  0.3125 0.0234375 0  0.3203125 0.0234375 0  0.328125 0.0234375 0  0.3359375 0.0234375 0  0.34375 0.0234375 0  0.3515625 0.0234375 0  0.359375 0.0234375 0  0.3671875 0.0234375 0  0.375 0.0234375 0  0.3828125 0.0234375 0  0.390625 0.0234375 0  0.3984375 0.0234375 0  0.40625 0.0234375 0  0.4140625 0.0234375 0  0.421875 0.0234375 0  0.4296875 0.0234375 0  0.4375 0.0234375 0  0.4453125 0.0234375 0  0.453125 0.0234375 0  0.4609375 0.0234375 0  0.46875 0.0234375 0  0.4765625 0.0234375 0  0.484375 0.0234375 0  0.4921875 0.0234375 0  0.5 0.0234375 0  0.5078125 0.0234375 0  0.515625 0.0234375 0  0.5234375 0.0234375 0  0.53125 0.0234375 0  0.5390625 0.0234375 0  0.546875 0.0234375 0  0.5546875 0.0234375 0  0.5625 0.0234375 0  0.5703125 0.0234375 0  0.578125 0.0234375 0  0.5859375 0.0234375 0  0.59375 0.0234375 0  0.6015625 0.0234375 0  0.609375 0.0234375 0  0.6171875 0.0234375 0  0.625 0.0234375 0  0.6328125 0.0234375 0  0.640625 0.0234375 0  0.6484375 0.0234375 0  0.65625 0.0234375 0  0.6640625 0.0234375 0  0.671875 0.0234375 0  0.6796875 0.0234375 0  0.6875 0.0234375 0  0.6953125 0.0234375 0  0.703125 0.0234375 0  0.7109375 0.0234375 0  0.71875 0.0234375 0  0.7265625 0.0234375 0  0.734375 0.0234375 0  0.7421875 0.0234375 0  0.75 0.0234375 0  0.7578125 0.0234375 0  0.765625 0.0234375 0  0.7734375 0.0234375 0  0.78125 0.0234375 0  0.7890625 0.0234375 0  0.796875 0.0234375 0  0.8046875 0.0234375 0  0.8125 0.0234375 0  0.8203125 0.0234375 0  0.828125 0.0234375 0  0.8359375 0.0234375 0  0.84375 0.0234375 0  0.8515625 0.0234375 0  0.859375 0.0234375 0  0.8671
[...]
<PointData  Scalars="v_sol"> 
<DataArray  type="Float64"  Name="v_sol"  format="ascii">-1.0448708719766873e-06  -5.9671663929039013e-06  -5.0585419863681370e-06  3.5870725885309868e-07  8.1709373494020271e-06  1.6947092496242825e-05  2.5603994617091221e-05  3.3211077050746986e-05  3.9055519549935386e-05  4.2675141877434741e-05  4.3925671067768768e-05  4.2973295904263389e-05  4.0246895654205662e-05  3.6343722916960683e-05  3.1923188820484035e-05  2.7607423043812917e-05  2.3908858862735731e-05  2.1190324197895301e-05  1.9655595127204381e-05  1.9361546288460868e-05  2.0241584739120732e-05  2.2131133943845258e-05  2.4791386993129305e-05  2.7932385127374934e-05  3.1234079038332560e-05  3.4369207565417676e-05  3.7036231579738766e-05  3.8997286926623492e-05  4.0086911698381342e-05  4.0195240934641660e-05  3.9241638876040706e-05  3.7138668528049545e-05  3.3679902322325420e-05  2.8472519845464724e-05  2.0921589656554485e-05  1.0380474179090379e-05  -3.8962888086738557e-06  -2.2655143758277152e-05  -4.6818686421838259e-05  -7.7273885219275801e-05  -1.1468182316213516e-04  -1.5976826836630519e-04  -2.1296105388233968e-04  -2.7470865692281283e-04  -3.4507315767589843e-04  -4.2330389713016652e-04  -5.0780319174267570e-04  -5.9592486594862504e-04  -6.8435042586467091e-04  -7.6936353195639897e-04  -8.4712760035454086e-04  -9.1395455341681750e-04  -9.6657098240136765e-04  -1.0023378095806699e-03  -1.0193813224291276e-03  -1.0166177690396614e-03  -9.9368246017661282e-04  -9.5080066086753075e-04  -8.8862315374193309e-04  -8.0809624101495941e-04  -7.1029946315461759e-04  -5.9645533330427119e-04  -4.6780050732407889e-04  -3.2514799968663314e-04  -1.7227698670074375e-04  -4.2735233293319582e-06  1.7485586303782628e-04  3.5710557755057939e-04  5.4346378578221945e-04  7.2960574803148282e-04  9.1225340248636782e-04  1.0870309653387108e-03  1.2494834020442052e-03  1.3947352219581162e-03  1.5179286432514955e-03  1.6143212304449300e-03  1.6796382598635042e-03  1.7103428796239990e-03  1.7039572628889520e-03  1.6593681731623194e-03  1.5770640144875487e-03  1.4593140511263618e-03  1.3102386668082282e-03  1.1356522585216104e-03  9.4277731820555381e-04  7.3962903169963012e-04  5.3450019028587173e-04  3.3475050713579823e-04  1.4718132410663544e-04  -2.6314228718258372e-05  -1.8090247906061126e-04  -3.1216956438273195e-04  -4.2782642682328577e-04  -5.3143566831602971e-04  -6.2155049199234249e-04  -6.9893106951703294e-04  -7.6173067836757464e-04  -8.0496647629702087e-04  -8.2263007891428372e-04  -8.0934723280921752e-04  -7.6294768089413788e-04  -6.8658210641506017e-04  -5.8880179204093925e-04  -4.8134967902400749e-04  -3.7591274200477853e-04  -2.8120059785826789e-04  -2.0179558468101419e-04  -1.3898209001997016e-04  -9.1698810603693112e-05  -5.7556983909597110e-05  -3.3873086703851095e-05  -1.8143317892043342e-05  -8.1658814783398974e-06  -2.0962252307557658e-06  1.5673019821454277e-06  4.0011098942307506e-06  6.0517785170467809e-06  8.2567923348071079e-06  1.0864592738101407e-05  1.3871153662384356e-05  1.7055427395304462e-05  2.0029347133807912e-05  2.2274787761009548e-05  2.3223269817183466e-05  2.2266011224410199e-05  1.8910040074784071e-05  1.2791627581751049e-05  4.5174285403179363e-06  -7.9863876762937109e-07  2.1568458086950795e-06  3.2528899882954053e-05  2.8216130942382709e-05  -1.7362548297135260e-07  -4.0079891764535656e-05  -8.4968821046066317e-05  -1.2910486575956690e-04  -1.6791081253711006e-04  -1.9767031683709603e-04  -2.1603615940572242e-04  -2.2225362546838409e-04  -2.1719631502213361e-04  -2.0308673369179121e-04  -1.8301557485882915e-04  -1.6037796244228021e-04  -1.3836113871349630e-04  -1.1957326315044326e-04  -1.0584599115817817e-04  -9.8194142610498974e-05  -9.6885756314028690e-05  -1.0156608551126975e-04  -1.1139064092625971e-04  -1.2514532728836688e-04  -1.4135546443305613e-04  -1.5839310548859223e-04  -1.7460405604555353e-04  -1.8846913879905797e-04  -1.9877164553673321e-04  -2.0468089060006711e-04  -2.0571993683147330e-04  -2.0157926794125403e-04  -1.9180387299958936e-04  -1.7531473576182780e-04  -1.5019522417336598e-04  -1.1359427837335617e-04  -6.2233738722308461e-05  7.7474908635345290e-06  1.0020520192601093e-04  2.1948691550776822e-04  3.6985331853238998e-04  5.5463421151350748e-04  7.7726673391440579e-04  1.0399154823542563e-03  1.3439821796794624e-03  1.6889366961288935e-03  2.0703917427758963e-03  2.4799183208726533e-03  2.9053081765665631e-03  3.3322116282557654e-03  3.7451394199233250e-03  4.1280304799225318e-03  4.4649132268576516e-03  4.7408290278672096e-03  4.9428402648760807e-03  5.0608067269849967e-03  5.0877407230103299e-03  5.0197200873484940e-03  4.8554666088130045e-03  4.5957498437919769e-03  4.2427731934247094e-03  3.7996577148154656e-03  3.2701401862631494e-03  2.6582959557355386e-03  1.9690603662962445e-03  1.2033217723783909e-03  3.5784682424358239e-04  -5.4819389076066953e-04  -1.4991040968108124e-03  -2.4869417957010288e-03  -3.4932678708428423e-03  -4.4993556063291648e-03  -5.4803993912179924e-03  -6.4088774243590682e-03  -7.2531902993131694e-03  -7.9801431374762876e-03  -8.5560852021455309e-03  -8.9499473929385027e-03  -9.1359048974844412e-03  -9.0966246354756541e-03  -8.8258391057000184e-03  -8.3301767754571515e-03  -7.6297009308189953e-03  -6.7569495966638927e-03  -5.7542946999880147e-03  -4.6702000212324925e-03  -3.5544969453713666e-03  -2.4541858858524567e-03  -1.4083172671815641e-03  -4.4687421583679900e-04  4.1661794302172954e-04  1.1746328205077905e-03  1.8158779108406655e-03  2.3619696295727175e-03  2.8445787897520267e-03  3.2649512609554780e-03  3.6175594344257638e-03  3.8942207643963738e-03  4.0732499056131549e-03  4.1262667556991048e-03  4.0300619244453533e-03  3.7777348451504085e-03  3.3867516878341867e-03  2.8981869712734207e-03  2.3667053376187140e-03  1.8465982960247998e-03  1.3792756168459603e-03  9.8752242005986863e-04  6.7770019872360457e-04  4.4470044471952929e-04  2.7689789306816392e-04  1.6086449636237087e-04  8.4189899313114229e-05  3.5976645418125814e-05  7.0114351721820100e-06  -1.0201265680747867e-05  -2.1530614440791516e-05  -3.1209270049128051e-05  -4.1906829924426886e-05  -5.4845504666409947e-05  -6.9968417013636098e-05  -8.6134942072875993e-05  -1.0133323322770635e-04  -1.1294025125545692e-04  -1.1795836661139070e-04  -1.1342148288086608e-04  -9.6317131389430077e-05  -6.5425807645937140e-05  -1.9883676548955289e-05  7.1659637402888118e-06  1.2531203008065393e-05  9.2312472023820563e-05  5.6267148689547581e-05  -5.5237383692034091e-05  -2.0984025046771776e-04  -3.8181783166245712e-04  -5.4982249512830462e-04  -6.9606521224182345e-04  -8.0698873113515927e-04  -8.7433963744279464e-04  -8.9585725472836743e-04  -8.7509208977005191e-04  -8.2033487069505711e-04  -7.4290429386093208e-04  -6.5520597028921590e-04  -5.6895556350238430e-04  -4.9384591220482299e-04  -4.3677984389822033e-04  -4.0163399241631680e-04  -3.8941540662022398e-04  -3.9864339016499473e-04  -4.2581157816971269e-04  -4.6583841307397839e-04  -5.1248562287479495e-04  -5.5879439193308054e-04  -5.9757969809237025e-04  -6.2196179187897372e-04  -6.2585427735595484e-04  -6.0429147504785898e-04  -5.5321712532325909e-04  -4.6862759047008808e-04  -3.4525967660743083e-04  -1.7559302158315533e-04  5.1329431092607340e-05  3.4972585796461418e-04  7.3665258151623346e-04  1.2289591871618205e-03  1.8427523843938466e-03  2.5931073596172512e-03  3.4933237297967994e-03  4.5524283688928632e-03  5.7693125623999820e-03  7.1326556279110659e-03  8.6190741972282572e-03  1.0191111255174518e-02  1.1796756666850932e-02  1.3371261350508305e-02  1.4843193403347082e-02  1.6142032104763150e-02  1.7205589445450812e-02  1.7985302090658600e-02  1.8448976379334237e-02  1.8581019439184193e-02  1.8380723715793211e-02  1.7859309691000774e-02  1.7036450618248770e-02  1.5936857308535741e-02  1.4587324098340201e-02  1.3014448812471461e-02  1.1243091612953832e-02  9.2955496312936391e-03  7.1912880922365566e-03  4.9473614375641819e-03  2.5781869679656986e-03  9.9966803715800847e-05  -2.4638829137580520e-03  -5.1002618392355197e-03  -7.7908821322177201e-03  -1.0507251558120313e-02  -1.3218208410845832e-02  -1.5882129643143818e-02  -1.8450301201714286e-02  -2.0864073428016074e-02  -2.3057901876440128e-02  -2.4960251629170611e-02  -2.6498373854149323e-02  -2.7602716328880204e-02  -2.8213575632465827e-02  -2.8287256343399007e-02  -2.7802257707105586e-02  -2.6763425590303903e-02  -2.5203916067743661e-02  -2.3183649387420881e-02  -2.0785281465490694e-02  -1.8106654984453584e-02  -1.5252387886185683e-02  -1.2324813008961218e-02  -9.4156342536736298e-03  -6.5983610513980833e-03  -3.9264359869908491e-03  -1.4280429474960263e-03  9.0327966584471161e-04  3.0751952358166489e-03  5.0945800901525517e-03  6.9925970102535356e-03  8.7856950266533996e-03  1.0447228694710318e-02  1.1909423316016923e-02  1.3061795353243259e-02  1.3765536080642725e-02  1.3891816653371828e-02  1.3372100014286539e-02  1.2240659135470717e-02  1.0643204944884459e-02  8.7994834517300790e-03  6.9376985413929834e-03  5.2364185039760402e-03  3.7982034646072849e-03  2.6547495769641766e-03  1.7898482194117625e-03  1.1631540096405050e-03  7.2589110323100111e-04  4.3073943432451995e-04  2.3617660321379125e-04  1.0751691864413135e-04  1.7459458044541874e-05  -5.4009030169382438e-05  -1.1998924863877617e-04  -1.8732133395129246e-04  -2.5741435216699335e-04  -3.2717230117345925e-04  -3.8999510138933179e-04  -4.3685112165168372e-04  -4.5747951079456192e-04  -4.4169037690366708e-04  -3.8103032553684230e-04  -2.7221891692369844e-04  -1.2339830526939165e-04  8.3478063238033668e-06  2.2268606595802482e-05  1.2509671348012071e-04  2.3522074417812664e-05  -2.1155499496502378e-04  -5.2460110409163015e-04  -8.6716328343755501e-04  -1.1972827764386519e-03  -1.4801826612181545e-03  -1.6901313822039747e-03  -1.8124060164374934e-03  -1.8441197249269578e-03  -1.7934320020281838e-03  -1.6772059283448664e-03  -1.5176486620518239e-03  -1.3386609034603230e-03  -1.1625682789096739e-03  -1.0076881842345448e-03  -8.8689969281714103e-04  -8.0715175646429885e-04  -7.6969385317175818e-04  -7.7073021812489300e-04  -8.0224497328493986e-04  -8.5284463523563597e-04  -9.0857985031232388e-04  -9.5375867183599729e-04  -9.7184384673793163e-04  -9.4646918260445794e-04  -8.6227649511519020e-04  -7.0507072144002385e-04  -4.6145923641528617e-04  -1.1723661068093589e-04  3.4552633392463168e-04  9.5137784360946819e-04  1.7303611028301816e-03  2.7166956223478762e-03  3.9467704267851780e-03  5.4566192086174829e-03  7.2739852618070250e-03  9.4124929413083955e-03  1.1868788392170955e-02  1.4614870699315580e-02  1.7592176224096333e-02  2.0707695300143512e-02  2.3838176551366917e-02  2.6840753993153860e-02  2.9568581095211068e-02  3.1887926175843885e-02  3.3692091669273699e-02  3.4910003957910996e-02  3.5508494635430925e-02  3.5489270436056028e-02  3.4882152540998433e-02  3.3736620473074248e-02  3.2113309130212105e-02  3.0076639854942903e-02  2.7689146074519590e-02  2.5007623278233942e-02  2.2080923196285032e-02  1.8949084331993549e-02  1.5643461879587362e-02  1.2187543518551093e-02  8.5982782044616551e-03  4.8875178844595898e-03  1.0646337756636366e-03  -2.8632838782053863e-03  -6.8928227076397001e-03  -1.1009185015166078e-02  -1.5191601287216611e-02  -1.9413986591275346e-02  -2.3637381032239026e-02  -2.7811315557096164e-02  -3.1869662846249813e-02  -3.5731789102310223e-02  -3.9301996074626380e-02  -4.2473290624243078e-02  -4.5131708646145005e-02  -4.7164446313676528e-02  -4.8469121748097289e-02  -4.8965033634208947e-02  -4.8603626865127821e-02  -4.7377248254054184e-02  -4.5323585059338645e-02  -4.2524893516968330e-02  -3.9101238632407283e-02  -3.5198972376531856e-02  -3.0975638282186531e-02  -2.6585336240281358e-02  -2.2164306881203362e-02  -1.7821354526804983e-02  -1.3630636186852818e-02  -9.6309798141486457e-03  -5.8330793907414701e-03  -2.1994765870924785e-03  1.3397428469030432e-03  4.8314395944263795e-03  8.3075478196904945e-03  1.1783427125737852e-02  1.5205745147192459e-02  1.8424491316493593e-02  2.1191298652770401e-02  2.3186270799018544e-02  2.4093104289992846e-02  2.3709785686437997e-02  2.2050526679785701e-02  1.9377184490905697e-02  1.6126596239198879e-02  1.2768043614801609e-02  9.6718060034987185e-03  7.0500419235674039e-03  4.9695795937084236e-03  3.3996713469657529e-03  2.2618927154271396e-03  1.4630908153951969e-03  9.1303927822588876e-04  5.3370183819362478e-04  2.6227842645057197e-04  5.1887505648097571e-05  -1.2911342601589621e-04  -2.9868769693000921e-04  -4.6306716826260139e-04  -6.1890229746015477e-04  -7.5549800573223842e-04  -8.5714866988872691e-04  -9.0566043509306539e-04  -8.8312098165896282e-04  -7.7542527215670358e-04  -5.7733517772864300e-04  -3.0108299489044448e-04  2.8131770125320227e-06  3.0443532851970433e-05  1.1114684778906928e-04  -9.5210999208202200e-05  -4.9324841982424281e-04  -1.0012674151814432e-03  -1.5450698851674611e-03  -2.0589313067160783e-03  -2.4888520392131941e-03  -2.7962706951229124e-03  -2.9610223715154866e-03  -2.9819980662504951e-03  -2.8751296964294347e-03  -2.6690761116770598e-03  -2.3996473854609218e-03  -2.1041072157242419e-03  -1.8162856781951710e-03  -1.5630824444296347e-03  -1.3625109326003658e-03  -1.2231030024176367e-03  -1.1443033005300561e-03  -1.1174473513284090e-03  -1.1269802014420151e-03  -1.1516709350688653e-03  -1.1657783563736182e-03  -1.1403060648963053e-03  -1.0442952373476068e-03  -8.4604324498454707e-04  -5.1443701486713668e-04  -1.9221624704918418e-05  6.7150054499497808e-04  1.5937263855888624e-03  2.7891337043434838e-03  4.3079055139950547e-03  6.2095990904578085e-03  8.5529574373905716e-03  1.1384721602004183e-02  1.4731154261487182e-02  1.8586099630474185e-02  2.2897361733988101e-02  2.7556564701698580e-02  3.2398241888669958e-02  3.7210117364401364e-02  4.1756956162647206e-02  4.5810716775273840e-02  4.9178991502288619e-02  5.1724815550603077e-02  5.3374842848836139e-02  5.4116579069982192e-02  5.3987753820245135e-02  5.3061716507479526e-02  5.1432313978506297e-02  4.9200719513718676e-02  4.6465448991655833e-02  4.3315816780286918e-02  3.9828402164765943e-02  3.6065807233965484e-02  3.2076944362580732e-02  2.7898222049454802e-02  2.3555173684225210e-02  1.9064249915006801e-02  1.4434645012554401e-02  9.6700759620518464e-03  4.7706967568552387e-03  -2.6552008490009107e-04  -5.4402518405883638e-03  -1.0749409835668583e-02  -1.6186746930256308e-02  -2.1738949502515995e-02  -2.7381126240583836e-02  -3.3075509297937671e-02  -3.8766570014212624e-02  -4.4379192619734692e-02  -4.9815597947276684e-02  -5.4955388419996788e-02  -5.9656619077562180e-02  -6.3760996110188248e-02  -6.7102030461022824e-02  -6.9517739898707978e-02  -7.0866176259613514e-02  -7.1043045942376329e-02  -6.9998116294449672e-02  -6.7747635652752672e-02  -6.4379142254262584e-02  -6.0046777706705544e-02  -5.4956659294024983e-02  -4.9344555409408762e-02  -4.3449931133828217e-02  -3.7490660461957648e-02  -3.1643485514653950e-02  -2.6031385959434453e-02  -2.0717569784696466e-02  -1.5706509824235427e-02  -1.0959855257455712e-02  -6.3988003154796871e-03  -1.8909464110165436e-03  2.7016642258055543e-03  7.4692055818210111e-03  1.2444399062340461e-02  1.7558223210635673e-02  2.2583619183374180e-02  2.7119395619305667e-02  3.0630269824277915e-02  3.2568133342717111e-02  3.2559628429083949e-02  3.0582504178891263e-02  2.7021079072225750e-02  2.2544310410410072e-02  1.7870473219377330e-02  1.3557748407001373e-02  9.9167770999955083e-03  7.0387782867105866e-03  4.8727985156675948e-03  3.2997747482411939e-03  2.1823429297975249e-03  1.3909470371303446e-03  8.1677215701532111e-04  3.7627263096590450e-04  1.1108946400211713e-05  -3.1399547256310087e-04  -6.1458742795194752e-04  -8.9015213204943959e-04  -1.1279024346314951e-03  -1.3066306701923112e-03  -1.4007398763798207e-03  -1.3845640497981454e-03  -1.2373444744220837e-03  -9.4896289048479411e-04  -5.2691964535613825e-04  -5.1388174434945670e-06  3.7763951070125850e-05  4.2145808970665606e-05  -3.1691133214363363e-04  -9.2115502469331955e-04  -1.6602985610412869e-03  -2.4307523640879074e-03  -3.1398449216599950e-03  -3.7126662020129067e-03  -4.0983122674857660e-03  -4.2739054717695259e-03  -4.2445042732872085e-03  -4.0388655303392829e-03  -3.7021388437558120e-03  -3.2872165060238833e-03  -2.8465049398585600e-03  -2.4253743502455033e-03  -2.0578265544895710e-03  -1.7643390391683957e-03  -1.5514689287495769e-03  -1.4126559470348523e-03  -1.3296503538403599e-03  -1.2741291269863942e-03  -1.2093226974687276e-03  -1.0915151318631605e-03  -8.7146875126542218e-04  -4.9641118619323649e-04  8.8251686098258467e-05  9.3896926751686110e-04  2.1135488535524681e-03  3.6718271601619565e-03  5.6819676525526426e-03  8.2222667800915493e-03  1.1372307480589055e-02  1.5202226924072887e-02  1.9756707865796506e-02  2.5030753714045187e-02  3.0948546950031682e-02  3.7349717658074599e-02  4.3988782810829963e-02  5.0556389240177059e-02  5.6719291077967325e-02  6.2167735097053547e-02  6.6656266591114996e-02  7.0027961741022424e-02  7.2219151920758284e-02  7.3247850419076596e-02  7.3192522930454459e-02  7.2168246161298910e-02  7.0305472034977876e-02  6.7734202124059381e-02  6.4574105664996884e-02  6.0929683015749685e-02  5.6888949664109442e-02  5.2524143360766662e-02  4.7893307394487702e-02  4.3042044096805468e-02  3.8005103902667273e-02  3.2807725039568664e-02  2.7466769710540410e-02  2.1991753426201400e-02  1.6385860817978930e-02  1.0647047234313726e-02  4.7692192525078956e-03  -1.2562107375751654e-03  -7.4383519981360141e-03  -1.3786093811606795e-02  -2.0303671388300668e-02  -2.6988247252701027e-02  -3.3826954735562305e-02  -4.0792386769619222e-02  -4.7838746464769467e-02  -5.4896916975661951e-02  -6.1870537053979650e-02  -6.8632401148673972e-02  -7.5023291000476652e-02  -8.0853464817264284e-02  -8.5908904301196840e-02  -8.9962724228092525e-02  -9.2792767348583771e-02  -9.4204227168636953e-02  -9.4055425178228708e-02  -9.2282500650764834e-02  -8.8918135744455049e-02  -8.4098932990957567e-02  -7.8057970216540470e-02  -7.1101888960518306e-02  -6.3575881619209240e-02  -5.5823100217256907e-02  -4.8146249386880724e-02  -4.0778244752927219e-02  -3.3865791333088931e-02  -2.7464643359190404e-02  -2.1544682255650389e-02  -1.6004841056012954e-02  -1.0696285423402875e-02  -5.4269859749077895e-03  1.8766052204181634e-05  5.8124525994745534e-03  1.2026540431147573e-02  1.8581608740446225e-02  2.5176812732599609e-02  3.1259341191686260e-02  3.6081518051922515e-02  3.8878493343072272e-02  3.9139558617945491e-02  3.6850001377518066e-02  3.2544464558223934e-02  2.7112324415765020e-02  2.1471131303416720e-02  1.6304343385273826e-02  1.1971701081078917e-02  8.5616598043466944e-03  5.9950605677908716e-03  4.1165076057822275e-03  2.7545159750435970e-03  1.7533867900161113e-03  9.8757125107748738e-04  3.6589565274936474e-04  -1.7004133628324906e-04  -6.4992518147118051e-04  -1.0798695843201908e-03  -1.4477898435126260e-03  -1.7288204702170912e-03  -1.8908452459611303e-03  -1.9002294794168220e-03  -1.7278714892294963e-03  -1.3551278010967415e-03  -7.7901789010109853e-04  -1.4254176719553468e-05  4.5104251887404076e-05  -8.6787470569643101e-05  -6.5608717263702248e-04  -1.5179827863735357e-03  -2.5287573088136513e-03  -3.5501156185893559e-03  -4.4583082880171728e-03  -5.1559879315475031e-03  -5.5817948597747403e-03  -5.7151991721765098e-03  -5.5745557364741726e-03  -5.2090541076606368e-03  -4.6867651235830282e-03  -4.0818367545829197e-03  -3.4633162410364249e-03  -2.8870179820383551e-03  -2.3907612548848701e-03  -1.9925227780497471e-03  -1.6906942839050865e-03  -1.4655933713976401e-03  -1.2815794209722845e-03  -1.0892509742707107e-03  -8.2740440677552581e-04  -4.2516744543047170e-04  1.9601888047495874e-04  1.1213219587886778e-03  2.4395183750133853e-03  4.2406200101140906e-03  6.6198568989676724e-03  9.6780747252768629e-03  1.3516170082763998e-02  1.8228142274633593e-02  2.3880471497092721e-02  3.0478716737830043e-02  3.7935495283012446e-02  4.6047290800798536e-02  5.4493185469120527e-02  6.2865910493289115e-02 