<?xml version="1.0"?>
<VTKFile type="UnstructuredGrid"  version="0.1"  >
<UnstructuredGrid>
<Piece  NumberOfPoints="16641" NumberOfCells="16384">
<Points>
<DataArray  type="Float64"  NumberOfComponents="3"  format="ascii">0 0 0  0.0078125 0 0  0.015625 0 0  0.0234375 0 0  0.03125 0 0  0.0390625 0 0  0.046875 0 0  0.0546875 0 0  0.0625 0 0  0.0703125 0 0  0.078125 0 0  0.0859375 0 0  0.09375 0 0  0.1015625 0 0  0.109375 0 0  0.1171875 0 0  0.125 0 0  0.1328125 0 0  0.140625 0 0  0.1484375 0 0  0.15625 0 0  0.1640625 0 0  0.171875 0 0  0.1796875 0 0  0.1875 0 0  0.1953125 0 0  0.203125 0 0  0.2109375 0 0  0.21875 0 0  0.2265625 0 0  0.234375 0 0  0.2421875 0 0  0.25 0 0  0.2578125 0 0  0.265625 0 0  0.2734375 0 0  0.28125 0 0  0.2890625 0 0  0.296875 0 0  0.3046875 0 0  0.3125 0 0  0.3203125 0 0  0.328125 0 0  0.3359375 0 0  0.34375 0 0  0.3515625 0 0  0.359375 0 0  0.3671875 0 0  0.375 0 0  0.3828125 0 0  0.390625 0 0  0.3984375 0 0  0.40625 0 0  0.4140625 0 0  0.421875 0 0  0.4296875 0 0  0.4375 0 0  0.4453125 0 0  0.453125 0 0  0.4609375 0 0  0.46875 0 0  0.4765625 0 0  0.484375 0 0  0.4921875 0 0  0.5 0 0  0.5078125 0 0  0.515625 0 0  0.5234375 0 0  0.53125 0 0  0.5390625 0 0  0.546875 0 0  0.5546875 0 0  0.5625 0 0  0.5703125 0 0  0.578125 0 0  0.5859375 0 0  0.59375 0 0  0.6015625 0 0  0.609375 0 0  0.6171875 0 0  0.625 0 0  0.6328125 0 0  0.640625 0 0  0.6484375 0 0  0.65625 0 0  0.6640625 0 0  0.671875 0 0  0.6796875 0 0  0.6875 0 0  0.6953125 0 0  0.703125 0 0  0.7109375 0 0  0.71875 0 0  0.7265625 0 0  0.734375 0 0  0.7421875 0 0  0.75 0 0  0.7578125 0 0  0.765625 0 0  0.7734375 0 0  0.78125 0 0  0.7890625 0 0  0.796875 0 0  0.8046875 0 0  0.8125 0 0  0.8203125 0 0  0.828125 0 0  0.8359375 0 0  0.84375 0 0  0.8515625 0 0  0.859375 0 0  0.8671875 0 0  0.875 0 0  0.8828125 0 0  0.890625 0 0  0.8984375 0 0  0.90625 0 0  0.9140625 0 0  0.921875 0 0  0.9296875 0 0  0.9375 0 0  0.9453125 0 0  0.953125 0 0  0.9609375 0 0  0.96875 0 0  0.9765625 0 0  0.984375 0 0  0.9921875 0 0  1 0 0  0 0.0078125 0  0.0078125 0.0078125 0  0.015625 0.0078125 0  0.0234375 0.0078125 0  0.03125 0.0078125 0  0.0390625 0.0078125 0  0.046875 0.0078125 0  0.0546875 0.0078125 0  0.0625 0.0078125 0  0.0703125 0.0078125 0  0.078125 0.0078125 0  0.0859375 0.0078125 0  0.09375 0.0078125 0  0.1015625 0.0078125 0  0.109375 0.0078125 0  0.1171875 0.0078125 0  0.125 0.0078125 0  0.1328125 0.0078125 0  0.140625 0.0078125 0  0.1484375 0.0078125 0  0.15625 0.0078125 0  0.1640625 0.0078125 0  0.171875 0.0078125 0  0.1796875 0.0078125 0  0.1875 0.0078125 0  0.1953125 0.0078125 0  0.203125 0.0078125 0  0.2109375 0.0078125 0  0.21875 0.0078125 0  0.2265625 0.0078125 0  0.234375 0.0078125 0  0.2421875 0.0078125 0  0.25 0.0078125 0  0.2578125 0.0078125 0  0.265625 0.0078125 0  0.2734375 0.0078125 0  0.28125 0.0078125 0  0.2890625 0.0078125 0  0.296875 0.0078125 0  0.3046875 0.0078125 0  0.3125 0.0078125 0  0.3203125 0.0078125 0  0.328125 0.0078125 0  0.3359375 0.0078125 0  0.34375 0.0078125 0  0.3515625 0.0078125 0  0.359375 0.0078125 0  0.3671875 0.0078125 0  0.375 0.0078125 0  0.3828125 0.0078125 0  0.390625 0.0078125 0  0.3984375 0.0078125 0  0.40625 0.0078125 0  0.4140625 0.0078125 0  0.421875 0.0078125 0  0.4296875 0.0078125 0  0.4375 0.0078125 0  0.4453125 0.0078125 0  0.453125 0.0078125 0  0.4609375 0.0078125 0  0.46875 0.0078125 0  0.4765625 0.0078125 0  0.484375 0.0078125 0  0.4921875 0.0078125 0  0.5 0.0078125 0  0.5078125 0.0078125 0  0.515625 0.0078125 0  0.5234375 0.0078125 0  0.53125 0.0078125 0  0.5390625 0.0078125 0  0.546875 0.0078125 0  0.5546875 0.0078125 0  0.5625 0.0078125 0  0.5703125 0.0078125 0  0.578125 0.0078125 0  0.5859375 0.0078125 0  0.59375 0.0078125 0  0.6015625 0.0078125 0  0.609375 0.0078125 0  0.6171875 0.0078125 0  0.625 0.0078125 0  0.6328125 0.0078125 0  0.640625 0.0078125 0  0.6484375 0.0078125 0  0.65625 0.0078125 0  0.6640625 0.0078125 0  0.671875 0.0078125 0  0.6796875 0.0078125 0  0.6875 0.0078125 0  0.6953125 0.0078125 0  0.703125 0.0078125 0  0.7109375 0.0078125 0  0.71875 0.0078125 0  0.7265625 0.0078125 0  0.734375 0.0078125 0  0.7421875 0.0078125 0  0.75 0.0078125 0  0.7578125 0.0078125 0  0.765625 0.0078125 0  0.7734375 0.0078125 0  0.78125 0.0078125 0  0.7890625 0.0078125 0  0.796875 0.0078125 0  0.8046875 0.0078125 0  0.8125 0.0078125 0  0.8203125 0.0078125 0  0.828125 0.0078125 0  0.8359375 0.0078125 0  0.84375 0.0078125 0  0.8515625 0.0078125 0  0.859375 0.0078125 0  0.8671875 0.0078125 0  0.875 0.0078125 0  0.8828125 0.0078125 0  0.890625 0.0078125 0  0.8984375 0.0078125 0  0.90625 0.0078125 0  0.9140625 0.0078125 0  0.921875 0.0078125 0  0.9296875 0.0078125 0  0.9375 0.0078125 0  0.9453125 0.0078125 0  0.953125 0.0078125 0  0.9609375 0.0078125 0  0.96875 0.0078125 0  0.9765625 0.0078125 0  0.984375 0.0078125 0  0.9921875 0.0078125 0  1 0.0078125 0  0 0.015625 0  0.0078125 0.015625 0  0.015625 0.015625 0  0.0234375 0.015625 0  0.03125 0.015625 0  0.0390625 0.015625 0  0.046875 0.015625 0  0.0546875 0.015625 0  0.0625 0.015625 0  0.0703125 0.015625 0  0.078125 0.015625 0  0.0859375 0.015625 0  0.09375 0.015625 0  0.1015625 0.015625 0  0.109375 0.015625 0  0.1171875 0.015625 0  0.125 0.015625 0  0.1328125 0.015625 0  0.140625 0.015625 0  0.1484375 0.015625 0  0.15625 0.015625 0  0.1640625 0.015625 0  0.171875 0.015625 0  0.1796875 0.015625 0  0.1875 0.015625 0  0.1953125 0.015625 0  0.203125 0.015625 0  0.2109375 0.015625 0  0.21875 0.015625 0  0.2265625 0.015625 0  0.234375 0.015625 0  0.2421875 0.015625 0  0.25 0.015625 0  0.2578125 0.015625 0  0.265625 0.015625 0  0.2734375 0.015625 0  0.28125 0.015625 0  0.2890625 0.015625 0  0.296875 0.015625 0  0.3046875 0.015625 0  0.3125 0.015625 0  0.3203125 0.015625 0  0.328125 0.015625 0  0.3359375 0.015625 0  0.34375 0.015625 0  0.3515625 0.015625 0  0.359375 0.015625 0  0.3671875 0.015625 0  0.375 0.015625 0  0.3828125 0.015625 0  0.390625 0.015625 0  0.3984375 0.015625 0  0.40625 0.015625 0  0.4140625 0.015625 0  0.421875 0.015625 0  0.4296875 0.015625 0  0.4375 0.015625 0  0.4453125 0.015625 0  0.453125 0.015625 0  0.4609375 0.015625 0  0.46875 0.015625 0  0.4765625 0.015625 0  0.484375 0.015625 0  0.4921875 0.015625 0  0.5 0.015625 0  0.5078125 0.015625 0  0.515625 0.015625 0  0.5234375 0.015625 0  0.53125 0.015625 0  0.5390625 0.015625 0  0.546875 0.015625 0  0.5546875 0.015625 0  0.5625 0.015625 0  0.5703125 0.015625 0  0.578125 0.015625 0  0.5859375 0.015625 0  0.59375 0.015625 0  0.6015625 0.015625 0  0.609375 0.015625 0  0.6171875 0.015625 0  0.625 0.015625 0  0.6328125 0.015625 0  0.640625 0.015625 0  0.6484375 0.015625 0  0.65625 0.015625 0  0.6640625 0.015625 0  0.671875 0.015625 0  0.6796875 0.015625 0  0.6875 0.015625 0  0.6953125 0.015625 0  0.703125 0.015625 0  0.7109375 0.015625 0  0.71875 0.015625 0  0.7265625 0.015625 0  0.734375 0.015625 0  0.7421875 0.015625 0  0.75 0.015625 0  0.7578125 0.015625 0  0.765625 0.015625 0  0.7734375 0.015625 0  0.78125 0.015625 0  0.7890625 0.015625 0  0.796875 0.015625 0  0.8046875 0.015625 0  0.8125 0.015625 0  0.8203125 0.015625 0  0.828125 0.015625 0  0.8359375 0.015625 0  0.84375 0.015625 0  0.8515625 0.015625 0  0.859375 0.015625 0  0.8671875 0.015625 0  0.875 0.015625 0  0.8828125 0.015625 0  0.890625 0.015625 0  0.8984375 0.015625 0  0.90625 0.015625 0  0.9140625 0.015625 0  0.921875 0.015625 0  0.9296875 0.015625 0  0.9375 0.015625 0  0.9453125 0.015625 0  0.953125 0.015625 0  0.9609375 0.015625 0  0.96875 0.015625 0  0.9765625 0.015625 0  0.984375 0.015625 0  0.9921875 0.015625 0  1 0.015625 0  0 0.0234375 0  0.0078125 0.0234375 0  0.015625 0.0234375 0  0.0234375 0.0234375 0  0.03125 0.0234375 0  0.0390625 0.0234375 0  0.046875 0.0234375 0  0.0546875 0.0234375 0  0.0625 0.0234375 0  0.0703125 0.0234375 0  0.078125 0.0234375 0  0.0859375 0.0234375 0  0.09375 0.0234375 0  0.1015625 0.0234375 0  0.109375 0.0234375 0  0.1171875 0.0234375 0  0.125 0.0234375 0  0.1328125 0.0234375 0  0.140625 0.0234375 0  0.1484375 0.0234375 0  0.15625 0.0234375 0  0.1640625 0.0234375 0  0.171875 0.0234375 0  0.1796875 0.0234375 0  0.1875 0.0234375 0  0.1953125 0.0234375 0  0.203125 0.0234375 0  0.2109375 0.0234375 0  0.21875 0.0234375 0  0.2265625 0.0234375 0  0.234375 0.0234375 0  0.2421875 0.0234375 0  0.25 0.0234375 0  0.2578125 0.0234375 0  0.265625 0.0234375 0  0.2734375 0.0234375 0  0.28125 0.0234375 0  0.2890625 0.0234375 0  0.296875 0.0234375 0  0.3046875 0.0234375 0  0.3125 0.0234375 0  0.3203125 0.0234375 0  0.328125 0.0234375 0  0.3359375 0.0234375 0  0.34375 0.0234375 0  0.3515625 0.0234375 0  0.359375 0.0234375 0  0.3671875 0.0234375 0  0.375 0.0234375 0  0.3828125 0.0234375 0  0.390625 0.0234375 0  0.3984375 0.0234375 0  0.40625 0.0234375 0  0.4140625 0.0234375 0  0.421875 0.0234375 0  0.4296875 0.0234375 0  0.4375 0.0234375 0  0.4453125 0.0234375 0  0.453125 0.0234375 0  0.4609375 0.0234375 0  0.46875 0.0234375 0  0.4765625 0.0234375 0  0.484375 0.0234375 0  0.4921875 0.0234375 0  0.5 0.0234375 0  0.5078125 0.0234375 0  0.515625 0.0234375 0  0.5234375 0.0234375 0  0.53125 0.0234375 0  0.5390625 0.0234375 0  0.546875 0.0234375 0  0.5546875 0.0234375 0  0.5625 0.0234375 0  0.5703125 0.0234375 0  0.578125 0.0234375 0  0.5859375 0.0234375 0  0.59375 0.0234375 0  0.6015625 0.0234375 0  0.609375 0.0234375 0  0.6171875 0.0234375 0  0.625 0.0234375 0  0.6328125 0.0234375 0  0.640625 0.0234375 0  0.6484375 0.0234375 0  0.65625 0.0234375 0  0.6640625 0.0234375 0  0.671875 0.0234375 0  0.6796875 0.0234375 0  0.6875 0.0234375 0  0.6953125 0.0234375 0  0.703125 0.0234375 0  0.7109375 0.0234375 0  0.71875 0.0234375 0  0.7265625 0.0234375 0  0.734375 0.0234375 0  0.7421875 0.0234375 0  0.75 0.0234375 0  0.7578125 0.0234375 0  0.765625 0.0234375 0  0.7734375 0.0234375 0  0.78125 0.0234375 0  0.7890625 0.0234375 0  0.796875 0.0234375 0  0.8046875 0.0234375 0  0.8125 0.0234375 0  0.8203125 0.0234375 0  0.828125 0.0234375 0  0.8359375 0.0234375 0  0.84375 0.0234375 0  0.8515625 0.0234375 0  0.859375 0.0234375 0  0.8671
[...]
<PointData  Scalars="u_sol"> 
<DataArray  type="Float64"  Name="u_sol"  format="ascii">1.2947796545495234e-06  -9.1313064196915404e-06  -2.0318281202720876e-05  -2.2131278934701297e-05  -1.7156967388823520e-05  -6.7829060989911571e-06  7.3243447510015430e-06  2.3610043564698858e-05  4.0494779743276547e-05  5.6547265247269067e-05  7.0621442979745849e-05  8.1973529910720822e-05  9.0307572385612352e-05  9.5752869189861837e-05  9.8788127832868616e-05  1.0013828224151055e-04  1.0066799414139215e-04  1.0128842012255539e-04  1.0288337003710637e-04  1.0625342633502677e-04  1.1207274728483601e-04  1.2085473833034976e-04  1.3292945888156632e-04  1.4843868419864425e-04  1.6736268610343354e-04  1.8957595514477825e-04  2.1492885463235143e-04  2.4335509444747453e-04  2.7493151997059643e-04  3.0991140193485027e-04  3.4875237796179773e-04  3.9200258756651960e-04  4.4022589816383615e-04  4.9391897734304838e-04  5.5349499671398660e-04  6.1914367906186409e-04  6.9091065872051930e-04  7.6858316249274927e-04  8.5172080144400658e-04  9.3963779630444914e-04  1.0309645239487220e-03  1.1244313486705982e-03  1.2179092317668673e-03  1.3084662490095529e-03  1.3933439145828743e-03  1.4689362320045867e-03  1.5302885887475350e-03  1.5731396108083916e-03  1.5937420032871243e-03  1.5877496471647047e-03  1.5513425352055468e-03  1.4811967945012590e-03  1.3747525433979420e-03  1.2303576503295947e-03  1.0474046490026091e-03  8.2641615724114628e-04  5.6909229746339907e-04  2.7831978409225999e-04  -4.1850052588103252e-05  -3.8624638186650855e-04  -7.4864781324363971e-04  -1.1218444290167671e-03  -1.4977987833947996e-03  -1.8674819134488255e-03  -2.2220166421088338e-03  -2.5506607054170570e-03  -2.8427156260445625e-03  -3.0912345576556751e-03  -3.2845725886041805e-03  -3.4106592031955974e-03  -3.4611240976238863e-03  -3.4277985973240337e-03  -3.3050446752714759e-03  -3.0895448052152457e-03  -2.7812127079371793e-03  -2.3835333263600850e-03  -1.9039633720855282e-03  -1.3540216308776988e-03  -7.4911609789661353e-04  -1.0804334592693138e-04  5.4846198909511319e-04  1.1930640371934297e-03  1.7997026041229047e-03  2.3605149476731194e-03  2.8586778392266361e-03  3.2619927934183016e-03  3.5637641853085026e-03  3.7644140792155618e-03  3.8607112600734404e-03  3.8591865302671233e-03  3.7681709547774458e-03  3.6003977927335580e-03  3.3687507689178051e-03  3.0918866925306958e-03  2.7846173633249145e-03  2.4563428350233250e-03  2.1224511068750796e-03  1.7942339706987483e-03  1.4808065395410066e-03  1.1905141536866599e-03  9.2864791079532165e-04  6.9890235539111329e-04  5.0283258720439322e-04  3.4025492525068256e-04  2.0949262634828905e-04  1.0773887010932814e-04  3.1422579146668914e-05  -2.3379955526177958e-05  -6.0579367056905985e-05  -8.3909639826041486e-05  -9.6715544855549714e-05  -1.0181764554723355e-04  -1.0152554590293940e-04  -9.7645365569590134e-05  -9.1550301596626351e-05  -8.4259414476185314e-05  -7.6500651007678527e-05  -6.8778972126930195e-05  -6.1429846921990598e-05  -5.4649315796031142e-05  -4.8505955722769951e-05  -4.2936634805945721e-05  -3.7724243797279761e-05  -3.2481611961033303e-05  -2.6624573018792265e-05  -1.9504391838075040e-05  -1.0531092800168242e-05  -1.2756037822123311e-06  1.1010514466082031e-06  -8.8354913366462962e-07  -5.4060217897119191e-06  5.6312106594770993e-05  2.3831622043422548e-04  5.4429018818907306e-04  9.5896656963284990e-04  1.4561384747497868e-03  2.0042906000557036e-03  2.5702242443019188e-03  3.1224882179147657e-03  3.6342955248537577e-03  4.0856931779786748e-03  4.4647604318996306e-03  4.7677950472112540e-03  4.9986025879355175e-03  5.1671109046700957e-03  5.2875696938962059e-03  5.3765747850404071e-03  5.4511051702872135e-03  5.5267040723521350e-03  5.6159026854813643e-03  5.7269798883086108e-03  5.8631598190826582e-03  6.0223540834504702e-03  6.1975058837206460e-03  6.3775115949712396e-03  6.5485058638523217e-03  6.6952351837061925e-03  6.8022409207663835e-03  6.8543764413442135e-03  6.8366101415919135e-03  6.7334684426205273e-03  6.5280649001295639e-03  6.2012848931302812e-03  5.7312330904626561e-03  5.0932363042909858e-03  4.2597459508322572e-03  3.2017361777190857e-03  1.8893276888260978e-03  2.9195690652859054e-04  -1.6202159557221377e-03  -3.8767544858565707e-03  -6.5024034675746929e-03  -9.5151071360744938e-03  -1.2927231875772566e-02  -1.6742653385879640e-02  -2.0955340690762075e-02  -2.5550742127573946e-02  -3.0504498027624012e-02  -3.5780788178843254e-02  -4.1333704670985384e-02  -4.7107928199245933e-02  -5.3039953378585358e-02  -5.9059460141254065e-02  -6.5090849833185596e-02  -7.1054805987971384e-02  -7.6869806029104551e-02  -8.2453513266012773e-02  -8.7724010964420035e-02  -9.2600867629716241e-02  -9.7006041082405528e-02  -1.0086468098257997e-01  -1.0410578610601864e-01  -1.0666314621123260e-01  -1.0847525009399708e-01  -1.0948849415889288e-01  -1.0965499748165904e-01  -1.0892845298037038e-01  -1.0727751243629738e-01  -1.0468373921214201e-01  -1.0113771456099400e-01  -9.6645247717130428e-02  -9.1226722498855162e-02  -8.4919600666792480e-02  -7.7779149548138374e-02  -6.9879450018495645e-02  -6.1313538102345563e-02  -5.2192952789590324e-02  -4.2646357783444090e-02  -3.2817150801068860e-02  -2.2860408810820718e-02  -1.2935090772317408e-02  -3.2083657275215004e-03  6.1353589266182782e-03  1.4940432255592127e-02  2.3092321144129770e-02  3.0463284048536130e-02  3.6942538915910324e-02  4.2458593781291146e-02  4.6961445051883578e-02  5.0431009564129763e-02  5.2872344735960940e-02  5.4316844205476444e-02  5.4811854764105238e-02  5.4431349663111535e-02  5.3270156734612523e-02  5.1419920727978338e-02  4.8984112257774770e-02  4.6074554991127767e-02  4.2803130188369398e-02  3.9282750604945516e-02  3.5622214063411518e-02  3.1923547870335696e-02  2.8278648377692422e-02  2.4766432713644076e-02  2.1450685863664401e-02  1.8378902010537209e-02  1.5582190963045325e-02  1.3076277537758805e-02  1.0863557816407576e-02  8.9355923744303591e-03  7.2758191205760008e-03  5.8622712010233755e-03  4.6699078897168827e-03  3.6725903052706415e-03  2.8446190196317008e-03  2.1617741558283394e-03  1.6020143054636862e-03  1.1459716535511077e-03  7.7729034907111211e-04  4.8287215991764154e-04  2.5303218681538357e-04  8.1457543620242899e-05  -3.5212421323273119e-05  -9.8580037641098918e-05  -1.1091261362040871e-04  -8.0206931994211052e-05  -2.7458858289600989e-05  4.5232051737760162e-06  -8.6208227547717172e-06  3.9534326689505530e-05  2.3105621166249026e-04  6.0901684907381146e-04  1.1774950394550200e-03  1.9139998649643386e-03  2.7784322547908186e-03  3.7213270032116202e-03  4.6901985633350657e-03  5.6351054557647433e-03  6.5131959696215014e-03  7.2920173996842324e-03  7.9513763358244841e-03  8.4837257520305794e-03  8.8932253986052194e-03  9.1937495763863668e-03  9.4061758996053808e-03  9.5552869189895768e-03  9.6665726281705069e-03  9.7631790660198201e-03  9.8632054889178384e-03  9.9775500357024982e-03  1.0108509071593885e-02  1.0249277486124076e-02  1.0384435780740140e-02  1.0491313827792071e-02  1.0542001393282647e-02  1.0505370126581152e-02  1.0348516923972213e-02  1.0037677258761967e-02  9.5382512425441560e-03  8.8137886396128951e-03  7.8248196475535024e-03  6.5276062290571093e-03  4.8748522693424379e-03  2.8159500917002908e-03  2.9766176877552177e-04  -2.7362974791959038e-03  -6.3404497571953383e-03  -1.0560883919739878e-02  -1.5434982570393139e-02  -2.0987422336099827e-02  -2.7231691705521633e-02  -3.4167460844733870e-02  -4.1773917964174970e-02  -5.0010721338392274e-02  -5.8818080977177847e-02  -6.8116147602798299e-02  -7.7807620895909049e-02  -8.7781550340885708e-02  -9.7916137372670478e-02  -1.0808267898748253e-01  -1.1814934517884447e-01  -1.2798478496106799e-01  -1.3746123933408247e-01  -1.4645707072467376e-01  -1.5485864329283894e-01  -1.6256158062433804e-01  -1.6947147145222405e-01  -1.7550412873211427e-01  -1.8058552668296271e-01  -1.8465151774225524e-01  -1.8764750964628038e-01  -1.8952793319502168e-01  -1.9025646378264077e-01  -1.8980312710887429e-01  -1.8814668741286705e-01  -1.8528374201011147e-01  -1.8121648385143302e-01  -1.7595354386712941e-01  -1.6951713559745457e-01  -1.6193941789050642e-01  -1.5326599385267037e-01  -1.4355565179246554e-01  -1.3288194675447984e-01  -1.2133363472438750e-01  -1.0901524751821105e-01  -9.6047001581767155e-02  -8.2564265741758916e-02  -6.8716433697609325e-02  -5.4665269215435415e-02  -4.0583981435186760e-02  -2.6646973761738652e-02  -1.3013792572704215e-02  1.3820246563611186e-04  1.2615429628535785e-02  2.4274318485134578e-02  3.4988356145796221e-02  4.4631658159321345e-02  5.3108691952127710e-02  6.0345381014511416e-02  6.6293593237128579e-02  7.0927910631062088e-02  7.4252677893895336e-02  7.6283996133503229e-02  7.7059355271819105e-02  7.6663146135938359e-02  7.5188483580633236e-02  7.2738870961060784e-02  6.9441646453248490e-02  6.5436566270785534e-02  6.0875611453488999e-02  5.5917720739858449e-02  5.0722835292564064e-02  4.5445205719874232e-02  4.0226406408335955e-02  3.5189094007904438e-02  3.0432371188055987e-02  2.6029324716938172e-02  2.2026793070929380e-02  1.8447357176537574e-02  1.5292889901350687e-02  1.2548921786889544e-02  1.0189350560692988e-02  8.1807762731817817e-03  6.4860201793195214e-03  5.0669975677248855e-03  3.8870204209360158e-03  2.9123643589040868e-03  2.1133706958546142e-03  1.4652273959725151e-03  9.4838108730553442e-04  5.4852044144977955e-04  2.5588736904125079e-04  6.3453950420031918e-05  -3.6316647755240386e-05  -5.7574672084777643e-05  -2.6017124024076984e-05  3.9592288543956152e-06  -1.7694992683562352e-05  8.8389265879228299e-05  4.1976939257616489e-04  9.9004364989677325e-04  1.7915482593023786e-03  2.7922555797762439e-03  3.9415449298253382e-03  5.1779698113876092e-03  6.4368903073086948e-03  7.6571874441394884e-03  8.7866586233623784e-03  9.7857874280879806e-03  1.0629753798316422e-02  1.1308732797813978e-02  1.1826686955239073e-02  1.2198959639892024e-02  1.2449014657520501e-02  1.2604667189857975e-02  1.2694128592572063e-02  1.2742138085650110e-02  1.2766495272936981e-02  1.2775259394206651e-02  1.2764902900512081e-02  1.2719712098082632e-02  1.2612405064162868e-02  1.2405796151437720e-02  1.2055076562303636e-02  1.1510284312816296e-02  1.0718391824300736e-02  9.6239766755019558e-03  8.1685971221978296e-03  6.2904092333046276e-03  3.9239618904076280e-03  9.9942738109032032e-04  -2.5596248801542389e-03  -6.8302649305618081e-03  -1.1882193611932138e-02  -1.7772836787827657e-02  -2.4547996971135706e-02  -3.2241464767476767e-02  -4.0864590940074948e-02  -5.0402552179206153e-02  -6.0810350135143167e-02  -7.2011948687677171e-02  -8.3903907678255452e-02  -9.6356850467249094e-02  -1.0922010681804518e-01  -1.2232807161377715e-01  -1.3550708003686721e-01  -1.4858227164625409e-01  -1.6138405550624652e-01  -1.7375323936444761e-01  -1.8554498038473918e-01  -1.9663126401621955e-01  -2.0690206697535443e-01  -2.1626536393509524e-01  -2.2464624875377320e-01  -2.3198543491779572e-01  -2.3823739113649958e-01  -2.4336832624843580e-01  -2.4735418957814945e-01  -2.5017881670167103e-01  -2.5183226689867433e-01  -2.5230954078448248e-01  -2.5160934359588472e-01  -2.4973532743170065e-01  -2.4669697469041871e-01  -2.4250069861667958e-01  -2.3715575596052807e-01  -2.3067765526873169e-01  -2.2308508345879058e-01  -2.1440403614886699e-01  -2.0466766201980685e-01  -1.9391892184471163e-01  -1.8221178405511496e-01  -1.6961317343889926e-01  -1.5620423379279777e-01  -1.4208142666651247e-01  -1.2735692652698585e-01  -1.1215832797367946e-01  -9.6627296801579124e-02  -8.0916116942647179e-02  -6.5185101457202688e-02  -4.9606135852666079e-02  -3.4343992241848267e-02  -1.9551378892483033e-02  -5.3935520919746295e-03  7.9828464659380469e-03  2.0456644500506486e-02  3.1915978354719370e-02  4.2268920427367476e-02  5.1439775996338977e-02  5.9371710352832972e-02  6.6020442024462042e-02  7.1364453218026438e-02  7.5390906095541721e-02  7.8083125569433212e-02  7.9467619737577294e-02  7.9598158745445555e-02  7.8536427934682143e-02  7.6372962208819659e-02  7.3223739305923380e-02  6.9229783445407353e-02  6.4554473084267913e-02  5.9377108207036372e-02  5.3884187782636782e-02  4.8258956392248989e-02  4.2670787022978170e-02  3.7265988872721673e-02  3.2161393668216465e-02  2.7441356508899350e-02  2.3158209709802993e-02  1.9335520314562690e-02  1.5973049243228996e-02  1.3052429920313222e-02  1.0543078395333531e-02  8.4074249759220517e-03  6.6048019744714128e-03  5.0947097936524790e-03  3.8393576504206751e-03  2.8053197859662328e-03  1.9646258042732437e-03  1.2951491926814676e-03  7.8018653704480000e-04  4.0692647616555805e-04  1.6364001757038265e-04  3.4968149540461409e-05  -3.5139217361551193e-06  -1.7549618083795547e-07  -2.5817546524286727e-05  1.3030087063071563e-04  5.8957511192393014e-04  1.3382425605793246e-03  2.3499323592467243e-03  3.5783608348434440e-03  4.9605590206762496e-03  6.4237839637567486e-03  7.8935389161895273e-03  9.3008857051267036e-03  1.0588180133982678e-02  1.1712797342742158e-02  1.2648775486536605e-02  1.3386559143722462e-02  1.3931177103278541e-02  1.4299234361370740e-02  1.4515097211610654e-02  1.4606585349709263e-02  1.4600467363132327e-02  1.4518095479838051e-02  1.4371361657878294e-02  1.4159528339485652e-02  1.3867298952920250e-02  1.3464185740007498e-02  1.2905467674359595e-02  1.2134483749394338e-02  1.1085605882647008e-02  9.6868797958782234e-03  7.8613916619026357e-03  5.5287172812826550e-03  2.6050034702427768e-03  -1.0001530827138500e-03  -5.3830797963207010e-03  -1.0637280256877111e-02  -1.6844760421264544e-02  -2.4077782569847269e-02  -3.2396468008340049e-02  -4.1838157692517794e-02  -5.2407571310688468e-02  -6.4070779924699339e-02  -7.6755490496094730e-02  -9.0349677060866801e-02  -1.0470382360977365e-01  -1.1963760126158371e-01  -1.3494820081778630e-01  -1.5042105667025671e-01  -1.6584047655196435e-01  -1.8099975591665352e-01  -1.9570946462708549e-01  -2.0980345711365084e-01  -2.2314229004697908e-01  -2.3561424345316570e-01  -2.4713430504599193e-01  -2.5764168768865536e-01  -2.6709639677935110e-01  -2.7547535739237644e-01  -2.8276849170983753e-01  -2.8897503865314028e-01  -2.9410029702578167e-01  -2.9815288773446647e-01  -3.0114256494652630e-01  -3.0307856038414244e-01  -3.0396843423597469e-01  -3.0381735047784209e-01  -3.0262788567724858e-01  -3.0039962277288501e-01  -2.9712689769364231e-01  -2.9280393504471769e-01  -2.8742560485284419e-01  -2.8098666865283844e-01  -2.7348498357650136e-01  -2.6492214691993293e-01  -2.5530625976394827e-01  -2.4465371204314376e-01  -2.3299183987142072e-01  -2.2036115773053519e-01  -2.0681773122680036e-01  -1.9243505631762964e-01  -1.7730545328691144e-01  -1.6154053949972796e-01  -1.4527058730439221e-01  -1.2864297447970624e-01  -1.1181949407247430e-01  -9.4969079124979025e-02  -7.8266246329806180e-02  -6.1885918425181541e-02  -4.5989421015723606e-02  -3.0727494526246815e-02  -1.6233792560920682e-02  -2.6187631925670162e-03  1.0026401623527414e-02  2.1631210529963123e-02  3.2140930572226188e-02  4.1515588713885276e-02  4.9721313309796442e-02  5.6734083717128202e-02  6.2537474077273739e-02  6.7093945875620328e-02  7.0379136979786761e-02  7.2398715996366020e-02  7.3166259751606261e-02  7.2718699850450208e-02  7.1124013785568097e-02  6.8483845411285452e-02  6.4934685419331312e-02  6.0643850578441828e-02  5.5800995979957177e-02  5.0606008456286398e-02  4.5255182340784149e-02  3.9927977384257553e-02  3.4776497015077804e-02  2.9919033419663326e-02  2.5438049204488836e-02  2.1382062629301979e-02  1.7770388490648915e-02  1.4599164402661334e-02  1.1847641765582723e-02  9.4846330260512524e-03  7.4735337267441866e-03  5.7761042664278587e-03  4.3557371524209718e-03  3.1796089582327731e-03  2.2200215480341974e-03  1.4548693503953908e-03  8.6711449070428416e-04  4.4323953802631664e-04  1.7003743825440463e-04  3.0274674239093215e-05  -6.5555827227070618e-06  -3.2829102843398721e-05  1.6558843392843232e-04  7.3890306893890825e-04  1.6518379545561413e-03  2.8570906060864129e-03  4.2898716133533557e-03  5.8711960030071826e-03  7.5149169573730376e-03  9.1362709955912502e-03  1.0659629473083224e-02  1.2024253021377027e-02  1.3187509432069727e-02  1.4125597898227146e-02  1.4832173399245257e-02  1.5315407648940429e-02  1.5594021383046341e-02  1.5692678154201497e-02  1.5637086702079004e-02  1.5449032674931246e-02  1.5141415229819832e-02  1.4714135761208755e-02  1.4150952154723244e-02  1.3417547347068692e-02  1.2461600897446953e-02  1.1214706230848442e-02  9.5954593678121529e-03  7.5127182678944296e-03  4.8691394901413595e-03  1.5628724441985107e-03  -2.5155238195810363e-03  -7.4797190770955020e-03  -1.3437263402409333e-02  -2.0486614205956093e-02  -2.8718568142832444e-02  -3.8207248732380308e-02  -4.8993695509456425e-02  -6.1077019837741650e-02  -7.4410295197759171e-02  -8.8896432490907534e-02  -1.0438796478079093e-01  -1.2069204922934382e-01  -1.3758045789426013e-01  -1.5480294019489435e-01  -1.7210213502575195e-01  -1.8922869292064579e-01  -2.0595430228232695e-01  -2.2208143323347856e-01  -2.3744902647367780e-01  -2.5193429739902906e-01  -2.6545115158309024e-01  -2.7794613238647575e-01  -2.8939284455883213e-01  -2.9978577126957573e-01  -3.0913419590247915e-01  -3.1745672890946669e-01  -3.2477671585646056e-01  -3.3111862891712707e-01  -3.3650541267740164e-01  -3.4095667508692429e-01  -3.4448757513265349e-01  -3.4710824996557177e-01  -3.4882363758484081e-01  -3.4963355746026625e-01  -3.4953296185100774e-01  -3.4851202203718112e-01  -3.4655644936011121e-01  -3.4365015038301866e-01  -3.3977491842687824e-01  -3.3491055203760356e-01  -3.2903651715943716e-01  -3.2213263762885386e-01  -3.1418094050483297e-01  -3.0516725861433441e-01  -2.9508360162867581e-01  -2.8393063567212412e-01  -2.7172066493774083e-01  -2.5848071391832483e-01  -2.4425571554922973e-01  -2.2911140845755590e-01  -2.1313667634751376e-01  -1.9644490019519509e-01  -1.7917381984062286e-01  -1.6148345785642404e-01  -1.4355318550223409e-01  -1.2557503931658276e-01  -1.0774562017505770e-01  -9.0259320815155392e-02  -7.3297582200728684e-02  -5.7021440411460081e-02  -4.1565642473790465e-02  -2.7034210245069568e-02  -1.3501065855285585e-02  -1.0122328475748617e-03  1.0407706396523954e-02  2.0749880011256935e-02  3.0011513876243647e-02  3.8189304440797323e-02  4.5281898869722399e-02  5.1264265405117963e-02  5.6094939646385997e-02  5.9744916723122897e-02  6.2190930460366313e-02  6.3423433147805408e-02  6.3460587649724870e-02  6.2356656772140508e-02  6.0207435837809693e-02  5.7150075822523572e-02  5.3356702083256789e-02  4.9022568808160680e-02  4.4350822188544865e-02  3.9536623532052659e-02  3.4753429606038382e-02  3.0143433502639223e-02  2.5813003299895484e-02  2.1832742184919075e-02  1.8241126608346901e-02  1.5050366424090172e-02  1.2252586252876656e-02  9.8264398469684270e-03  7.7429093322730945e-03  5.9695292618349941e-03  4.4741104188032853e-03  3.2274397423398995e-03  2.2051217673339490e-03  1.3885933339588261e-03  7.6523468414619396e-04  3.2730090211236602e-04  6.9702989544036980e-05  -1.4060017626037702e-05  -3.9211874593634339e-05  1.9740360189461796e-04  8.7685160395706133e-04  1.9457669087419123e-03  3.3347639924034586e-03  4.9569251174135971e-03  6.7131999965527123e-03  8.5010094911572211e-03  1.0223955060558726e-02  1.1800120790299150e-02  1.3167568763204745e-02  1.4286532107340483e-02  1.5138588228357053e-02  1.5723533830261757e-02  1.6054793723557871e-02  1.6154047778535852e-02  1.6045596491654220e-02  1.5750686310016450e-02  1.5281804225618725e-02  1.4637852833536445e-02  1.3799944812756412e-02  1.2728314932920114e-02  1.1361650377762657e-02  9.6185185166087605e-03  7.4004580643847219e-03  4.5970074894870561e-03  1.0897604875285028e-03  -3.2479389108392141e-03  -8.5457600521229530e-03  -1.4925627586851103e-02  -2.2503021511784946e-02  -3.1387510794774309e-02  -4.1667579925603035e-02  -5.3393503999699957e-02  -6.6567863422750673e-02  -8.1137831958955867e-02  -9.6988564781228054e-02  -1.1394383055001263e-01  -1.3177347297514649e-01  -1.5020667616876568e-01  -1.6894981352880906e-01  -1.877