<?xml version="1.0"?>
<VTKFile type="UnstructuredGrid"  version="0.1"  >
<UnstructuredGrid>
<Piece  NumberOfPoints="16641" NumberOfCells="16384">
<Points>
<DataArray  type="Float64"  NumberOfComponents="3"  format="ascii">0 0 0  0.0078125 0 0  0.015625 0 0  0.0234375 0 0  0.03125 0 0  0.0390625 0 0  0.046875 0 0  0.0546875 0 0  0.0625 0 0  0.0703125 0 0  0.078125 0 0  0.0859375 0 0  0.09375 0 0  0.1015625 0 0  0.109375 0 0  0.1171875 0 0  0.125 0 0  0.1328125 0 0  0.140625 0 0  0.1484375 0 0  0.15625 0 0  0.1640625 0 0  0.171875 0 0  0.1796875 0 0  0.1875 0 0  0.1953125 0 0  0.203125 0 0  0.2109375 0 0  0.21875 0 0  0.2265625 0 0  0.234375 0 0  0.2421875 0 0  0.25 0 0  0.2578125 0 0  0.265625 0 0  0.2734375 0 0  0.28125 0 0  0.2890625 0 0  0.296875 0 0  0.3046875 0 0  0.3125 0 0  0.3203125 0 0  0.328125 0 0  0.3359375 0 0  0.34375 0 0  0.3515625 0 0  0.359375 0 0  0.3671875 0 0  0.375 0 0  0.3828125 0 0  0.390625 0 0  0.3984375 0 0  0.40625 0 0  0.4140625 0 0  0.421875 0 0  0.4296875 0 0  0.4375 0 0  0.4453125 0 0  0.453125 0 0  0.4609375 0 0  0.46875 0 0  0.4765625 0 0  0.484375 0 0  0.4921875 0 0  0.5 0 0  0.5078125 0 0  0.515625 0 0  0.5234375 0 0  0.53125 0 0  0.5390625 0 0  0.546875 0 0  0.5546875 0 0  0.5625 0 0  0.5703125 0 0  0.578125 0 0  0.5859375 0 0  0.59375 0 0  0.6015625 0 0  0.609375 0 0  0.6171875 0 0  0.625 0 0  0.6328125 0 0  0.640625 0 0  0.6484375 0 0  0.65625 0 0  0.6640625 0 0  0.671875 0 0  0.6796875 0 0  0.6875 0 0  0.6953125 0 0  0.703125 0 0  0.7109375 0 0  0.71875 0 0  0.7265625 0 0  0.734375 0 0  0.7421875 0 0  0.75 0 0  0.7578125 0 0  0.765625 0 0  0.7734375 0 0  0.78125 0 0  0.7890625 0 0  0.796875 0 0  0.8046875 0 0  0.8125 0 0  0.8203125 0 0  0.828125 0 0  0.8359375 0 0  0.84375 0 0  0.8515625 0 0  0.859375 0 0  0.8671875 0 0  0.875 0 0  0.8828125 0 0  0.890625 0 0  0.8984375 0 0  0.90625 0 0  0.9140625 0 0  0.921875 0 0  0.9296875 0 0  0.9375 0 0  0.9453125 0 0  0.953125 0 0  0.9609375 0 0  0.96875 0 0  0.9765625 0 0  0.984375 0 0  0.9921875 0 0  1 0 0  0 0.0078125 0  0.0078125 0.0078125 0  0.015625 0.0078125 0  0.0234375 0.0078125 0  0.03125 0.0078125 0  0.0390625 0.0078125 0  0.046875 0.0078125 0  0.0546875 0.0078125 0  0.0625 0.0078125 0  0.0703125 0.0078125 0  0.078125 0.0078125 0  0.0859375 0.0078125 0  0.09375 0.0078125 0  0.1015625 0.0078125 0  0.109375 0.0078125 0  0.1171875 0.0078125 0  0.125 0.0078125 0  0.1328125 0.0078125 0  0.140625 0.0078125 0  0.1484375 0.0078125 0  0.15625 0.0078125 0  0.1640625 0.0078125 0  0.171875 0.0078125 0  0.1796875 0.0078125 0  0.1875 0.0078125 0  0.1953125 0.0078125 0  0.203125 0.0078125 0  0.2109375 0.0078125 0  0.21875 0.0078125 0  0.2265625 0.0078125 0  0.234375 0.0078125 0  0.2421875 0.0078125 0  0.25 0.0078125 0  0.2578125 0.0078125 0  0.265625 0.0078125 0  0.2734375 0.0078125 0  0.28125 0.0078125 0  0.2890625 0.0078125 0  0.296875 0.0078125 0  0.3046875 0.0078125 0  0.3125 0.0078125 0  0.3203125 0.0078125 0  0.328125 0.0078125 0  0.3359375 0.0078125 0  0.34375 0.0078125 0  0.3515625 0.0078125 0  0.359375 0.0078125 0  0.3671875 0.0078125 0  0.375 0.0078125 0  0.3828125 0.0078125 0  0.390625 0.0078125 0  0.3984375 0.0078125 0  0.40625 0.0078125 0  0.4140625 0.0078125 0  0.421875 0.0078125 0  0.4296875 0.0078125 0  0.4375 0.0078125 0  0.4453125 0.0078125 0  0.453125 0.0078125 0  0.4609375 0.0078125 0  0.46875 0.0078125 0  0.4765625 0.0078125 0  0.484375 0.0078125 0  0.4921875 0.0078125 0  0.5 0.0078125 0  0.5078125 0.0078125 0  0.515625 0.0078125 0  0.5234375 0.0078125 0  0.53125 0.0078125 0  0.5390625 0.0078125 0  0.546875 0.0078125 0  0.5546875 0.0078125 0  0.5625 0.0078125 0  0.5703125 0.0078125 0  0.578125 0.0078125 0  0.5859375 0.0078125 0  0.59375 0.0078125 0  0.6015625 0.0078125 0  0.609375 0.0078125 0  0.6171875 0.0078125 0  0.625 0.0078125 0  0.6328125 0.0078125 0  0.640625 0.0078125 0  0.6484375 0.0078125 0  0.65625 0.0078125 0  0.6640625 0.0078125 0  0.671875 0.0078125 0  0.6796875 0.0078125 0  0.6875 0.0078125 0  0.6953125 0.0078125 0  0.703125 0.0078125 0  0.7109375 0.0078125 0  0.71875 0.0078125 0  0.7265625 0.0078125 0  0.734375 0.0078125 0  0.7421875 0.0078125 0  0.75 0.0078125 0  0.7578125 0.0078125 0  0.765625 0.0078125 0  0.7734375 0.0078125 0  0.78125 0.0078125 0  0.7890625 0.0078125 0  0.796875 0.0078125 0  0.8046875 0.0078125 0  0.8125 0.0078125 0  0.8203125 0.0078125 0  0.828125 0.0078125 0  0.8359375 0.0078125 0  0.84375 0.0078125 0  0.8515625 0.0078125 0  0.859375 0.0078125 0  0.8671875 0.0078125 0  0.875 0.0078125 0  0.8828125 0.0078125 0  0.890625 0.0078125 0  0.8984375 0.0078125 0  0.90625 0.0078125 0  0.9140625 0.0078125 0  0.921875 0.0078125 0  0.9296875 0.0078125 0  0.9375 0.0078125 0  0.9453125 0.0078125 0  0.953125 0.0078125 0  0.9609375 0.0078125 0  0.96875 0.0078125 0  0.9765625 0.0078125 0  0.984375 0.0078125 0  0.9921875 0.0078125 0  1 0.0078125 0  0 0.015625 0  0.0078125 0.015625 0  0.015625 0.015625 0  0.0234375 0.015625 0  0.03125 0.015625 0  0.0390625 0.015625 0  0.046875 0.015625 0  0.0546875 0.015625 0  0.0625 0.015625 0  0.0703125 0.015625 0  0.078125 0.015625 0  0.0859375 0.015625 0  0.09375 0.015625 0  0.1015625 0.015625 0  0.109375 0.015625 0  0.1171875 0.015625 0  0.125 0.015625 0  0.1328125 0.015625 0  0.140625 0.015625 0  0.1484375 0.015625 0  0.15625 0.015625 0  0.1640625 0.015625 0  0.171875 0.015625 0  0.1796875 0.015625 0  0.1875 0.015625 0  0.1953125 0.015625 0  0.203125 0.015625 0  0.2109375 0.015625 0  0.21875 0.015625 0  0.2265625 0.015625 0  0.234375 0.015625 0  0.2421875 0.015625 0  0.25 0.015625 0  0.2578125 0.015625 0  0.265625 0.015625 0  0.2734375 0.015625 0  0.28125 0.015625 0  0.2890625 0.015625 0  0.296875 0.015625 0  0.3046875 0.015625 0  0.3125 0.015625 0  0.3203125 0.015625 0  0.328125 0.015625 0  0.3359375 0.015625 0  0.34375 0.015625 0  0.3515625 0.015625 0  0.359375 0.015625 0  0.3671875 0.015625 0  0.375 0.015625 0  0.3828125 0.015625 0  0.390625 0.015625 0  0.3984375 0.015625 0  0.40625 0.015625 0  0.4140625 0.015625 0  0.421875 0.015625 0  0.4296875 0.015625 0  0.4375 0.015625 0  0.4453125 0.015625 0  0.453125 0.015625 0  0.4609375 0.015625 0  0.46875 0.015625 0  0.4765625 0.015625 0  0.484375 0.015625 0  0.4921875 0.015625 0  0.5 0.015625 0  0.5078125 0.015625 0  0.515625 0.015625 0  0.5234375 0.015625 0  0.53125 0.015625 0  0.5390625 0.015625 0  0.546875 0.015625 0  0.5546875 0.015625 0  0.5625 0.015625 0  0.5703125 0.015625 0  0.578125 0.015625 0  0.5859375 0.015625 0  0.59375 0.015625 0  0.6015625 0.015625 0  0.609375 0.015625 0  0.6171875 0.015625 0  0.625 0.015625 0  0.6328125 0.015625 0  0.640625 0.015625 0  0.6484375 0.015625 0  0.65625 0.015625 0  0.6640625 0.015625 0  0.671875 0.015625 0  0.6796875 0.015625 0  0.6875 0.015625 0  0.6953125 0.015625 0  0.703125 0.015625 0  0.7109375 0.015625 0  0.71875 0.015625 0  0.7265625 0.015625 0  0.734375 0.015625 0  0.7421875 0.015625 0  0.75 0.015625 0  0.7578125 0.015625 0  0.765625 0.015625 0  0.7734375 0.015625 0  0.78125 0.015625 0  0.7890625 0.015625 0  0.796875 0.015625 0  0.8046875 0.015625 0  0.8125 0.015625 0  0.8203125 0.015625 0  0.828125 0.015625 0  0.8359375 0.015625 0  0.84375 0.015625 0  0.8515625 0.015625 0  0.859375 0.015625 0  0.8671875 0.015625 0  0.875 0.015625 0  0.8828125 0.015625 0  0.890625 0.015625 0  0.8984375 0.015625 0  0.90625 0.015625 0  0.9140625 0.015625 0  0.921875 0.015625 0  0.9296875 0.015625 0  0.9375 0.015625 0  0.9453125 0.015625 0  0.953125 0.015625 0  0.9609375 0.015625 0  0.96875 0.015625 0  0.9765625 0.015625 0  0.984375 0.015625 0  0.9921875 0.015625 0  1 0.015625 0  0 0.0234375 0  0.0078125 0.0234375 0  0.015625 0.0234375 0  0.0234375 0.0234375 0  0.03125 0.0234375 0  0.0390625 0.0234375 0  0.046875 0.0234375 0  0.0546875 0.0234375 0  0.0625 0.0234375 0  0.0703125 0.0234375 0  0.078125 0.0234375 0  0.0859375 0.0234375 0  0.09375 0.0234375 0  0.1015625 0.0234375 0  0.109375 0.0234375 0  0.1171875 0.0234375 0  0.125 0.0234375 0  0.1328125 0.0234375 0  0.140625 0.0234375 0  0.1484375 0.0234375 0  0.15625 0.0234375 0  0.1640625 0.0234375 0  0.171875 0.0234375 0  0.1796875 0.0234375 0  0.1875 0.0234375 0  0.1953125 0.0234375 0  0.203125 0.0234375 0  0.2109375 0.0234375 0  0.21875 0.0234375 0  0.2265625 0.0234375 0  0.234375 0.0234375 0  0.2421875 0.0234375 0  0.25 0.0234375 0  0.2578125 0.0234375 0  0.265625 0.0234375 0  0.2734375 0.0234375 0  0.28125 0.0234375 0  0.2890625 0.0234375 0  0.296875 0.0234375 0  0.3046875 0.0234375 0  0.3125 0.0234375 0  0.3203125 0.0234375 0  0.328125 0.0234375 0  0.3359375 0.0234375 0  0.34375 0.0234375 0  0.3515625 0.0234375 0  0.359375 0.0234375 0  0.3671875 0.0234375 0  0.375 0.0234375 0  0.3828125 0.0234375 0  0.390625 0.0234375 0  0.3984375 0.0234375 0  0.40625 0.0234375 0  0.4140625 0.0234375 0  0.421875 0.0234375 0  0.4296875 0.0234375 0  0.4375 0.0234375 0  0.4453125 0.0234375 0  0.453125 0.0234375 0  0.4609375 0.0234375 0  0.46875 0.0234375 0  0.4765625 0.0234375 0  0.484375 0.0234375 0  0.4921875 0.0234375 0  0.5 0.0234375 0  0.5078125 0.0234375 0  0.515625 0.0234375 0  0.5234375 0.0234375 0  0.53125 0.0234375 0  0.5390625 0.0234375 0  0.546875 0.0234375 0  0.5546875 0.0234375 0  0.5625 0.0234375 0  0.5703125 0.0234375 0  0.578125 0.0234375 0  0.5859375 0.0234375 0  0.59375 0.0234375 0  0.6015625 0.0234375 0  0.609375 0.0234375 0  0.6171875 0.0234375 0  0.625 0.0234375 0  0.6328125 0.0234375 0  0.640625 0.0234375 0  0.6484375 0.0234375 0  0.65625 0.0234375 0  0.6640625 0.0234375 0  0.671875 0.0234375 0  0.6796875 0.0234375 0  0.6875 0.0234375 0  0.6953125 0.0234375 0  0.703125 0.0234375 0  0.7109375 0.0234375 0  0.71875 0.0234375 0  0.7265625 0.0234375 0  0.734375 0.0234375 0  0.7421875 0.0234375 0  0.75 0.0234375 0  0.7578125 0.0234375 0  0.765625 0.0234375 0  0.7734375 0.0234375 0  0.78125 0.0234375 0  0.7890625 0.0234375 0  0.796875 0.0234375 0  0.8046875 0.0234375 0  0.8125 0.0234375 0  0.8203125 0.0234375 0  0.828125 0.0234375 0  0.8359375 0.0234375 0  0.84375 0.0234375 0  0.8515625 0.0234375 0  0.859375 0.0234375 0  0.8671
[...]
<PointData  Scalars="v_sol"> 
<DataArray  type="Float64"  Name="v_sol"  format="ascii">-1.2881167928483443e-06  1.0211489650603101e-06  9.6108240152987061e-06  2.0527825471359349e-05  3.0836494912908677e-05  3.9257364292084217e-05  4.5121462461065926e-05  4.8133812831843508e-05  4.8303879880701585e-05  4.5918307386815508e-05  4.1488310786313304e-05  3.5673586737952944e-05  2.9193724095327694e-05  2.2742987788602639e-05  1.6920662676847492e-05  1.2183675099346516e-05  8.8217556483830597e-06  6.9519348006091246e-06  6.5267401098353153e-06  7.3509855520388760e-06  9.1088130205159178e-06  1.1394941253230371e-05  1.3758044186510107e-05  1.5752515513931941e-05  1.6987691504609916e-05  1.7173480781035395e-05  1.6131845285784556e-05  1.3811808552341509e-05  1.0252380747934935e-05  5.4693060352794110e-06  -5.4633736721154244e-07  -7.8280549139070773e-06  -1.6536250096185632e-05  -2.6899017925616518e-05  -3.9289339485602522e-05  -5.3844566818887042e-05  -7.0808207982906387e-05  -8.9969010726605970e-05  -1.1176400543203046e-04  -1.3627777944964014e-04  -1.6357873520382563e-04  -1.9387325112472803e-04  -2.2599823646589907e-04  -2.5981392701638077e-04  -2.9482524368725117e-04  -3.3012446078964505e-04  -3.6484519803006553e-04  -3.9870956672507553e-04  -4.3048910592486430e-04  -4.5923975374702726e-04  -4.8402441438286038e-04  -5.0397739032236142e-04  -5.1831887481448770e-04  -5.2638479563752100e-04  -5.2764118017362073e-04  -5.2169284211996613e-04  -5.0828297383436719e-04  -4.8728680388736913e-04  -4.5870089227763273e-04  -4.2263083005425857e-04  -3.7927990442146627e-04  -3.2894014680528527e-04  -2.7198808425983530e-04  -2.0890917352266403e-04  -1.4007758143143558e-04  -6.7018748768264799e-05  1.0996046791223319e-05  9.3927980756548671e-05  1.7804169861761234e-04  2.6394051523683708e-04  3.4973857785466119e-04  4.3432152646121169e-04  5.1606177300289081e-04  5.9340898991037320e-04  6.6467560100354607e-04  7.2819051765675696e-04  7.8230758356352811e-04  8.2549012633009353e-04  8.5638739209587347e-04  8.7386368466245944e-04  8.7735522073348186e-04  8.6783063912560866e-04  8.4122422960417065e-04  7.9488452252485611e-04  7.4094408443043779e-04  6.7929856571942177e-04  6.0201660369878262e-04  5.1835017840738847e-04  4.2866749452895688e-04  3.3599174876601881e-04  2.4277400296592448e-04  1.5129072922804530e-04  6.4173555096247434e-05  -1.8836546158602428e-05  -9.0845725451410412e-05  -1.5444729343223090e-04  -2.1031927107213446e-04  -2.5484484364190959e-04  -2.8938332802646395e-04  -3.1346107374656291e-04  -3.2746412732617605e-04  -3.3205892130555375e-04  -3.2815844286450407e-04  -3.1695714154826837e-04  -2.9983232029402566e-04  -2.7826949522295828e-04  -2.5374861403008235e-04  -2.2768495295997371e-04  -2.0130573103525722e-04  -1.7558807093300999e-04  -1.5129612545584066e-04  -1.2893462528184001e-04  -1.0879882711475507e-04  -9.1015571546225910e-05  -7.5561371667191344e-05  -6.2304187114214644e-05  -5.1056996929544824e-05  -4.1596326122980447e-05  -3.3661393760188147e-05  -2.6975267056093980e-05  -2.1243915107528542e-05  -1.6168432292160475e-05  -1.1467910591684592e-05  -6.9264786240667005e-06  -2.4866704297013607e-06  1.5977525042982410e-06  4.4439034202212688e-06  4.5832741673608291e-06  1.1078258158953474e-06  9.1220278657685442e-06  5.1186806204199854e-06  -4.4315416327685798e-05  -1.0373396390539501e-04  -1.5865566350908289e-04  -2.0310140269654594e-04  -2.3388660750794975e-04  -2.4953344601634698e-04  -2.5013495075093268e-04  -2.3725187041189524e-04  -2.1364730172078315e-04  -1.8286939341336620e-04  -1.4876516875367299e-04  -1.1501789493861680e-04  -8.4777787134327802e-05  -6.0419989361936336e-05  -4.3427842964721317e-05  -3.4377577419747724e-05  -3.2991042963392694e-05  -3.8230043251006534e-05  -4.8430029220743686e-05  -6.1465641998595489e-05  -7.4971599089443592e-05  -8.6610141540181864e-05  -9.4348449682471664e-05  -9.6694184430099644e-05  -9.2794241926836250e-05  -8.2460461020236506e-05  -6.5936328816481340e-05  -4.3478797404561516e-05  -1.5173509990688133e-05  1.9247138167912045e-05  6.0580668754959002e-05  1.0999933705278850e-04  1.6904391631333951e-04  2.3889552788681576e-04  3.2074328278962284e-04  4.1460757113851544e-04  5.2171506868993911e-04  6.4260035708254204e-04  7.7760494679685824e-04  9.2667299502823442e-04  1.0867982494596820e-03  1.2562014176554571e-03  1.4324327953514698e-03  1.6121767038888969e-03  1.7920060481820118e-03  1.9679729136995892e-03  2.1354591131172284e-03  2.2896928392236579e-03  2.4260139143846603e-03  2.5399905704290848e-03  2.6275535504644248e-03  2.6851209315136080e-03  2.7096804146293715e-03  2.6988343990885940e-03  2.6508069834650875e-03  2.5644211851661900e-03  2.4390562614514779e-03  2.2745972909033658e-03  2.0713886144557701e-03  1.8302034039537885e-03  1.5522343853995532e-03  1.2391069309694899e-03  8.9313148033791508e-04  5.1728339029404654e-04  1.1335618247930844e-04  -3.1650724915400493e-04  -7.6520535511687712e-04  -1.2279304976074458e-03  -1.6975501335641603e-03  -2.1666507967893120e-03  -2.6263764712826064e-03  -3.0670903660842013e-03  -3.4782851949885234e-03  -3.8490066968168957e-03  -4.1682064683741258e-03  -4.4252949959263377e-03  -4.6107581624463016e-03  -4.7169389261677453e-03  -4.7385219654405746e-03  -4.6710054131022223e-03  -4.5119201271138429e-03  -4.2648325403937979e-03  -3.9475067263501015e-03  -3.5678663325110771e-03  -3.1283784557467826e-03  -2.6494694759223434e-03  -2.1458494301051568e-03  -1.6327863493160275e-03  -1.1248611838768940e-03  -6.3515460016402294e-04  -1.7493366868433338e-04  2.4707536518301585e-04  6.1837310731301858e-04  9.3940846182548224e-04  1.2103757576081094e-03  1.4243671927455820e-03  1.5832811171199415e-03  1.6881933798167906e-03  1.7416338354557374e-03  1.7478468536559497e-03  1.7122117838369573e-03  1.6412533784417838e-03  1.5422696739952420e-03  1.4229095163077576e-03  1.2906947423316460e-03  1.1525741053295998e-03  1.0145410776651465e-03  8.8138249324299690e-04  7.5662939040383001e-04  6.4258395926948444e-04  5.4049397408767604e-04  4.5076149812089213e-04  3.7310970525834553e-04  3.0677253259708581e-04  2.5071677865764108e-04  2.0373704708463801e-04  1.6448275773837668e-04  1.3151536371706904e-04  1.0331286697625929e-04  7.8312521540039798e-05  5.5016981214601808e-05  3.2226894106134575e-05  9.4938655342308304e-06  -1.2015642051635571e-05  -2.7906957135166842e-05  -2.7499735561884058e-05  -1.3155727583412942e-06  2.0578370764566701e-05  -5.3086990018453481e-05  -2.4200809535349676e-04  -4.6521609886918905e-04  -6.7474304703188815e-04  -8.4584215709590288e-04  -9.6473774525504628e-04  -1.0250856003505213e-03  -1.0269767005006379e-03  -9.7621237709969637e-04  -8.8316681396249713e-04  -7.6121626263680998e-04  -6.2496343973750810e-04  -4.8853774587102102e-04  -3.6419594102195301e-04  -2.6134357826564379e-04  -1.8599419697168769e-04  -1.4060176175049110e-04  -1.2417986133155985e-04  -1.3263507819218120e-04  -1.5926403326532428e-04  -1.9546545734772856e-04  -2.3162871974341721e-04  -2.5817936875937306e-04  -2.6667971589708003e-04  -2.5072328548487213e-04  -2.0636620842225762e-04  -1.3187203210931794e-04  -2.7026987082768053e-05  1.0789931174508987e-04  2.7342729354622311e-04  4.7164454506283331e-04  7.0621729954687470e-04  9.8159897121706747e-04  1.3017903357244074e-03  1.6719803897343145e-03  2.0964848100231905e-03  2.5781679626927234e-03  3.1151089688816482e-03  3.7036834511514276e-03  4.3396995269885203e-03  5.0160311997603764e-03  5.7221502043619220e-03  6.4443786085144191e-03  7.1668196332946646e-03  7.8716481979333973e-03  8.5403483548995851e-03  9.1545495363417762e-03  9.6953130343057341e-03  1.0145149895977645e-02  1.0488766105154017e-02  1.0713494359865209e-02  1.0809607258969723e-02  1.0770415792243223e-02  1.0592177702303628e-02  1.0273848900841671e-02  9.8167339629374392e-03  9.2240880791650427e-03  8.5007220797937207e-03  7.6526523564460274e-03  6.6868273554854087e-03  5.6109517422237706e-03  4.4334184815431931e-03  3.1633518990652528e-03  1.8105516236874746e-03  3.8551553201661534e-04  -1.1016539096271730e-03  -2.6355454277594541e-03  -4.1998820062530600e-03  -5.7779379760266557e-03  -7.3501788742482933e-03  -8.8946207400223878e-03  -1.0387072282499077e-02  -1.1801082097027149e-02  -1.3108573587036485e-02  -1.4280408949720103e-02  -1.5287412860937646e-02  -1.6101538517494719e-02  -1.6697306583521084e-02  -1.7053286504360877e-02  -1.7153533205580915e-02  -1.6988320140494548e-02  -1.6551084773990851e-02  -1.5848183617841658e-02  -1.4905183127817115e-02  -1.3748283230280083e-02  -1.2402027243982410e-02  -1.0900806592264941e-02  -9.2865112052193215e-03  -7.6016281157971323e-03  -5.8881691137368649e-03  -4.1859672098706656e-03  -2.5315787651367595e-03  -9.5673633328880727e-04  5.0812783973265346e-04  1.8348280218509713e-03  3.0058664268729262e-03  4.0130185593601885e-03  4.8414874519822227e-03  5.4843528274514611e-03  5.9397727383432913e-03  6.2106296624916653e-03  6.3060168761993277e-03  6.2410366937629518e-03  6.0364003591752442e-03  5.7172858393793108e-03  5.3115759795267095e-03  4.8478010658210263e-03  4.3530114765907273e-03  3.8510322482715256e-03  3.3613722235065310e-03  2.8986981678104642e-03  2.4729192711528320e-03  2.0896616187832074e-03  1.7510165528825327e-03  1.4564903848011419e-03  1.2036254381397320e-03  9.8855037553005360e-04  8.0650792606348201e-04  6.5205083420345658e-04  5.1927578587241687e-04  4.0210218131067214e-04  2.9478254671309949e-04  1.9285261561112523e-04  9.4800610185882670e-05  4.8407492016062343e-06  -6.2709468304361637e-05  -7.8752747735139818e-05  -1.0741579972590357e-05  2.4103269266167631e-05  -2.1641578912663361e-04  -6.0825986287814837e-04  -1.0487811064422473e-03  -1.4606827885884643e-03  -1.7966259922332192e-03  -2.0286073344130727e-03  -2.1436383925231809e-03  -2.1418566787969966e-03  -2.0347639840746774e-03  -1.8427791311808562e-03  -1.5921178035696840e-03  -1.3113830239615942e-03  -1.0283257950360477e-03  -7.6714556641109370e-04  -5.4653753418138016e-04  -3.7852207020415136e-04  -2.6798563744986133e-04  -2.1278673874594361e-04  -2.0432239836552069e-04  -2.2856484943835576e-04  -2.6745114664449330e-04  -3.0078900804626844e-04  -3.0844138817169299e-04  -2.7245941592232985e-04  -1.7879903161508798e-04  -1.8207022662530127e-05  2.1417561444407989e-04  5.2042098960510127e-04  9.0212777141692650e-04  1.3619541317553105e-03  1.9044127619243932e-03  2.5369819410162218e-03  3.2701686288955974e-03  4.1135353866558434e-03  5.0712444863958307e-03  6.1442034564837267e-03  7.3303255376974937e-03  8.6208167315700961e-03  9.9999159441348535e-03  1.1445499769854940e-02  1.2930237142104293e-02  1.4422713805940325e-02  1.5884996024733623e-02  1.7276498880150641e-02  1.8556599088892144e-02  1.9686135939080647e-02  2.0629237104326882e-02  2.1355677910802624e-02  2.1841493111574135e-02  2.2069936484040428e-02  2.2031510527683512e-02  2.1723536410719446e-02  2.1149338566952783e-02  2.0317192852770005e-02  1.9239176660794353e-02  1.7930042054537812e-02  1.6406204795923376e-02  1.4684910853686790e-02  1.2783614841204261e-02  1.0719580229596909e-02  8.5096960930923834e-03  6.1704942556259973e-03  3.7183337675535709e-03  1.1697409276433749e-03  -1.4589211644326036e-03  -4.1473983637625826e-03  -6.8750275624500376e-03  -9.6222525614319994e-03  -1.2363442024519035e-02  -1.5071380929234298e-02  -1.7714665102507247e-02  -2.0258572141948997e-02  -2.2664839410614375e-02  -2.4892297320992351e-02  -2.6897713222747727e-02  -2.8637071250335922e-02  -3.0067257139670286e-02  -3.1148037940210656e-02  -3.1844236005949565e-02  -3.2127745071027780e-02  -3.1979691095984579e-02  -3.1395545488846308e-02  -3.0382946839753823e-02  -2.8952671389308727e-02  -2.7139546343440683e-02  -2.4995854932320160e-02  -2.2564286641029611e-02  -1.9903178302672606e-02  -1.7075287464054099e-02  -1.4142578043395455e-02  -1.1166068327627234e-02  -8.2026903332400331e-03  -5.3061876131211289e-03  -2.5195280401179953e-03  1.1016443759993408e-04  2.5368754574639344e-03  4.7238834317807317e-03  6.6452300173407202e-03  8.2724304183589021e-03  9.5816217713016946e-03  1.0557860029611068e-02  1.1195621231161169e-02  1.1501606869242981e-02  1.1495976092732100e-02  1.1212051346820982e-02  1.0694299719768820e-02  9.9947255580309265e-03  9.1683561161495647e-03  8.2686224698394102e-03  7.3433988944028323e-03  6.4323494250238455e-03  5.5656236409636082e-03  4.7638453618990663e-03  4.0391269421839035e-03  3.3964442411521774e-03  2.8352554569162150e-03  2.3510278879210417e-03  1.9361311274180117e-03  1.5808455905941289e-03  1.2740396934997783e-03  1.0039521341166178e-03  7.5934542756386249e-04  5.3136540303496348e-04  3.1651420599750123e-04  1.2113907490763116e-04  -3.2471763709885366e-05  -9.8975759524293970e-05  -1.9695019738937461e-05  2.3677831538410279e-05  -4.7999065571374363e-04  -1.1378580687848934e-03  -1.8379816940159751e-03  -2.4815035989492044e-03  -3.0003350235581930e-03  -3.3520975819965652e-03  -3.5173227381000050e-03  -3.4972508088629908e-03  -3.3108921651172057e-03  -2.9909045969542121e-03  -2.5785699574998005e-03  -2.1184914345471566e-03  -1.6536606025157258e-03  -1.2213776081062366e-03  -8.5027331271594387e-04  -5.5847257696792251e-04  -3.5276717524608368e-04  -2.2868606571852169e-04  -1.7133112504250718e-04  -1.5684485392425794e-04  -1.5488895300344769e-04  -1.3167346223325749e-04  -5.3500684703904116e-05  1.0970840440333104e-04  3.8165564577597008e-04  7.7867019828857975e-04  1.3105849758157455e-03  1.9827056726207043e-03  2.7987136943983175e-03  3.7659494047551029e-03  4.8957232322328625e-03  6.1991489233882303e-03  7.6848158719718396e-03  9.3599044940960822e-03  1.1223200142155162e-02  1.3262839862214998e-02  1.5455756381659550e-02  1.7771006778376355e-02  2.0165112282607266e-02  2.2583333704962440e-02  2.4963975416117948e-02  2.7239788147617742e-02  2.9343415736589870e-02  3.1210196164616615e-02  3.2782315987788427e-02  3.4011978204461196e-02  3.4863557459918836e-02  3.5314321083378196e-02  3.5354380560587574e-02  3.4985491546616621e-02  3.4219306272313579e-02  3.3075189895347586e-02  3.1577964272415181e-02  2.9755764001011622e-02  2.7638172909736674e-02  2.5254721467385135e-02  2.2633779662401789e-02  1.9801836620801632e-02  1.6783133332023279e-02  1.3599602493602548e-02  1.0271065740143697e-02  6.8156450061559546e-03  3.2503739954261269e-03  -4.0794749697621509e-04  -4.1414881576324700e-03  -7.9323357188526150e-03  -1.1762071584391914e-02  -1.5605907851730071e-02  -1.9437438222012080e-02  -2.3224356624638884e-02  -2.6929783722628584e-02  -3.0510949217942347e-02  -3.3919745715484895e-02  -3.7102935381213231e-02  -4.0003268587679233e-02  -4.2560998239361367e-02  -4.4716069471725829e-02  -4.6410822539331417e-02  -4.7593123299504124e-02  -4.8219821010492117e-02  -4.8260309149938944e-02  -4.7698247570339442e-02  -4.6533890154006045e-02  -4.4790908586717658e-02  -4.2504956055955903e-02  -3.9725958843464318e-02  -3.6525567368321687e-02  -3.2976461614028452e-02  -2.9159412141878786e-02  -2.5154934103142169e-02  -2.1040800564740402e-02  -1.6889475562133712e-02  -1.2765187845491622e-02  -8.7287397509823728e-03  -4.8260908303018749e-03  -1.1059082566714231e-03  2.3746767063090187e-03  5.5650877170398448e-03  8.4201416210672800e-03  1.0894248069520803e-02  1.2943124574955660e-02  1.4531496846239472e-02  1.5637576488664272e-02  1.6257990464890397e-02  1.6411195922758293e-02  1.6138079661806685e-02  1.5499314918635749e-02  1.4569850631209596e-02  1.3431574493317104e-02  1.2165627492847003e-02  1.0845747444200643e-02  9.5336499201367376e-03  8.2767485126064005e-03  7.1079278049300315e-03  6.0467593740264084e-03  5.1017560232156324e-03  4.2725651865501068e-03  3.5523323371293427e-03  2.9291986774442678e-03  2.3879153066408039e-03  1.9114027184276687e-03  1.4826798006451563e-03  1.0876617527892892e-03  7.1926483070741459e-04  3.8321653600377964e-04  1.0579531975184471e-04  -5.5789921788671418e-05  -2.5751620820964591e-05  2.1262327932966102e-05  -8.3112387065947737e-04  -1.8170778187004781e-03  -2.8163326232760848e-03  -3.7130312789777960e-03  -4.4212034714412630e-03  -4.8860262935811506e-03  -5.0835792672924021e-03  -5.0187702595202478e-03  -4.7210538092024266e-03  -4.2382080387080709e-03  -3.6289798278436340e-03  -2.9556068569325357e-03  -2.2770866219017686e-03  -1.6437591698255447e-03  -1.0934185727841880e-03  -6.4890680635641131e-04  -3.1703952448667899e-04  -8.8644655131823696e-05  6.0445210252046508e-05  1.6692965185546079e-04  2.7670679180947936e-04  4.4032040922561223e-04  7.0762853824733426e-04  1.1227661083594133e-03  1.7207066902335132e-03  2.5253940256356332e-03  3.5512096160800074e-03  4.8091866527916324e-03  6.3099588921045292e-03  8.0622347096245012e-03  1.0076538684264502e-02  1.2362358218886418e-02  1.4920507905629623e-02  1.7739173376445833e-02  2.0794770354850872e-02  2.4045296454637252e-02  2.7430230422618898e-02  3.0872601138366602e-02  3.4283491839583166e-02  3.7566402414068258e-02  4.0622561381150613e-02  4.3358508721671532e-02  4.5691464161403288e-02  4.7554503360893202e-02  4.8899529119944843e-02  4.9698477017482479e-02  4.9942515048637955e-02  4.9639893837929806e-02  4.8812711248599677e-02  4.7493320093343894e-02  4.5720707799108452e-02  4.3537233754776250e-02  4.0985899359657886e-02  3.8108254912393669e-02  3.4942933259758439e-02  3.1524756279908722e-02  2.7884323965779632e-02  2.4047991172352276e-02  2.0038142241477326e-02  1.5873688706260661e-02  1.1570731079589915e-02  7.1433427011458519e-03  2.6044422863294153e-03  -2.0332717597938920e-03  -6.7565306996349439e-03  -1.1550260587195618e-02  -1.6394860418895017e-02  -2.1268078934829248e-02  -2.6141509705854476e-02  -3.0981112506599004e-02  -3.5745443962776756e-02  -4.0385590376445749e-02  -4.4844614626718925e-02  -4.9057996130391739e-02  -5.2954414950615210e-02  -5.6457442245382725e-02  -5.9487971160542580e-02  -6.1967531251817969e-02  -6.3822342930112241e-02  -6.4987906332884329e-02  -6.5413693997709202e-02  -6.5068074380920937e-02  -6.3942215330982571e-02  -6.2049975563769809e-02  -5.9432102188262108e-02  -5.6153417101505204e-02  -5.2295583828505861e-02  -4.7957187587552720e-02  -4.3242903591867256e-02  -3.8259097013429798e-02  -3.3106823997389193e-02  -2.7877337434924685e-02  -2.2649948594581439e-02  -1.7489495203333733e-02  -1.2452895086548199e-02  -7.5840231943842366e-03  -2.9222417084907352e-03  1.4774317813793065e-03  5.5589750616728108e-03  9.2641079537492815e-03  1.2530400179275952e-02  1.5293974983867158e-02  1.7497619344667190e-02  1.9099723364252665e-02  2.0082494465215490e-02  2.0457916377976490e-02  2.0269742220990934e-02  1.9590555989573478e-02  1.8514474803409012e-02  1.7147077851987224e-02  1.5594650544148084e-02  1.3954828833680995e-02  1.2309984381014594e-02  1.0723820347260020e-02  9.2409248922514196e-03  7.8882388986582282e-03  6.6775739275577225e-03  5.6087217520712079e-03  4.6723577635715474e-03  3.8523675527647920e-03  3.1283436514834024e-03  2.4784331549676723e-03  1.8829942713510120e-03  1.3296460295758831e-03  8.2016977326277417e-04  3.7976338524813599e-04  6.9261954903961973e-05  -2.8506238793654756e-05  1.8068698035333834e-05  -1.2597080954177458e-03  -2.6343671444059888e-03  -3.9720374698649944e-03  -5.1400106598100100e-03  -6.0362960066803490e-03  -6.5963353176667835e-03  -6.7953358996540279e-03  -6.6461641431226227e-03  -6.1932228079885996e-03  -5.5034614664381800e-03  -4.6561121558375031e-03  -3.7326900914088005e-03  -2.8084029067166148e-03  -1.9455282888205740e-03  -1.1888764732476656e-03  -5.6307935074137721e-04  -7.1451429013377900e-05  3.0400431750040436e-04  6.0072157422420109e-04  8.7253144957617605e-04  1.1847901506460625e-03  1.6078265141876305e-03  2.2098883997039489e-03  3.0498989457619550e-03  4.1727197358602504e-03  5.6109423080178246e-03  7.3863945817318147e-03  9.5109319031361061e-03  1.1994544567348518e-02  1.4844869583960751e-02  1.8062390771398009e-02  2.1637938335427879e-02  2.5547046487544502e-02  2.9740760688864006e-02  3.4144748204012344e-02  3.8662186356139099e-02  4.3177001059031203e-02  4.7560595057715066e-02  5.1680970937899438e-02  5.5