<?xml version="1.0"?>
<VTKFile type="UnstructuredGrid"  version="0.1"  >
<UnstructuredGrid>
<Piece  NumberOfPoints="16641" NumberOfCells="16384">
<Points>
<DataArray  type="Float64"  NumberOfComponents="3"  format="ascii">0 0 0  0.0078125 0 0  0.015625 0 0  0.0234375 0 0  0.03125 0 0  0.0390625 0 0  0.046875 0 0  0.0546875 0 0  0.0625 0 0  0.0703125 0 0  0.078125 0 0  0.0859375 0 0  0.09375 0 0  0.1015625 0 0  0.109375 0 0  0.1171875 0 0  0.125 0 0  0.1328125 0 0  0.140625 0 0  0.1484375 0 0  0.15625 0 0  0.1640625 0 0  0.171875 0 0  0.1796875 0 0  0.1875 0 0  0.1953125 0 0  0.203125 0 0  0.2109375 0 0  0.21875 0 0  0.2265625 0 0  0.234375 0 0  0.2421875 0 0  0.25 0 0  0.2578125 0 0  0.265625 0 0  0.2734375 0 0  0.28125 0 0  0.2890625 0 0  0.296875 0 0  0.3046875 0 0  0.3125 0 0  0.3203125 0 0  0.328125 0 0  0.3359375 0 0  0.34375 0 0  0.3515625 0 0  0.359375 0 0  0.3671875 0 0  0.375 0 0  0.3828125 0 0  0.390625 0 0  0.3984375 0 0  0.40625 0 0  0.4140625 0 0  0.421875 0 0  0.4296875 0 0  0.4375 0 0  0.4453125 0 0  0.453125 0 0  0.4609375 0 0  0.46875 0 0  0.4765625 0 0  0.484375 0 0  0.4921875 0 0  0.5 0 0  0.5078125 0 0  0.515625 0 0  0.5234375 0 0  0.53125 0 0  0.5390625 0 0  0.546875 0 0  0.5546875 0 0  0.5625 0 0  0.5703125 0 0  0.578125 0 0  0.5859375 0 0  0.59375 0 0  0.6015625 0 0  0.609375 0 0  0.6171875 0 0  0.625 0 0  0.6328125 0 0  0.640625 0 0  0.6484375 0 0  0.65625 0 0  0.6640625 0 0  0.671875 0 0  0.6796875 0 0  0.6875 0 0  0.6953125 0 0  0.703125 0 0  0.7109375 0 0  0.71875 0 0  0.7265625 0 0  0.734375 0 0  0.7421875 0 0  0.75 0 0  0.7578125 0 0  0.765625 0 0  0.7734375 0 0  0.78125 0 0  0.7890625 0 0  0.796875 0 0  0.8046875 0 0  0.8125 0 0  0.8203125 0 0  0.828125 0 0  0.8359375 0 0  0.84375 0 0  0.8515625 0 0  0.859375 0 0  0.8671875 0 0  0.875 0 0  0.8828125 0 0  0.890625 0 0  0.8984375 0 0  0.90625 0 0  0.9140625 0 0  0.921875 0 0  0.9296875 0 0  0.9375 0 0  0.9453125 0 0  0.953125 0 0  0.9609375 0 0  0.96875 0 0  0.9765625 0 0  0.984375 0 0  0.9921875 0 0  1 0 0  0 0.0078125 0  0.0078125 0.0078125 0  0.015625 0.0078125 0  0.0234375 0.0078125 0  0.03125 0.0078125 0  0.0390625 0.0078125 0  0.046875 0.0078125 0  0.0546875 0.0078125 0  0.0625 0.0078125 0  0.0703125 0.0078125 0  0.078125 0.0078125 0  0.0859375 0.0078125 0  0.09375 0.0078125 0  0.1015625 0.0078125 0  0.109375 0.0078125 0  0.1171875 0.0078125 0  0.125 0.0078125 0  0.1328125 0.0078125 0  0.140625 0.0078125 0  0.1484375 0.0078125 0  0.15625 0.0078125 0  0.1640625 0.0078125 0  0.171875 0.0078125 0  0.1796875 0.0078125 0  0.1875 0.0078125 0  0.1953125 0.0078125 0  0.203125 0.0078125 0  0.2109375 0.0078125 0  0.21875 0.0078125 0  0.2265625 0.0078125 0  0.234375 0.0078125 0  0.2421875 0.0078125 0  0.25 0.0078125 0  0.2578125 0.0078125 0  0.265625 0.0078125 0  0.2734375 0.0078125 0  0.28125 0.0078125 0  0.2890625 0.0078125 0  0.296875 0.0078125 0  0.3046875 0.0078125 0  0.3125 0.0078125 0  0.3203125 0.0078125 0  0.328125 0.0078125 0  0.3359375 0.0078125 0  0.34375 0.0078125 0  0.3515625 0.0078125 0  0.359375 0.0078125 0  0.3671875 0.0078125 0  0.375 0.0078125 0  0.3828125 0.0078125 0  0.390625 0.0078125 0  0.3984375 0.0078125 0  0.40625 0.0078125 0  0.4140625 0.0078125 0  0.421875 0.0078125 0  0.4296875 0.0078125 0  0.4375 0.0078125 0  0.4453125 0.0078125 0  0.453125 0.0078125 0  0.4609375 0.0078125 0  0.46875 0.0078125 0  0.4765625 0.0078125 0  0.484375 0.0078125 0  0.4921875 0.0078125 0  0.5 0.0078125 0  0.5078125 0.0078125 0  0.515625 0.0078125 0  0.5234375 0.0078125 0  0.53125 0.0078125 0  0.5390625 0.0078125 0  0.546875 0.0078125 0  0.5546875 0.0078125 0  0.5625 0.0078125 0  0.5703125 0.0078125 0  0.578125 0.0078125 0  0.5859375 0.0078125 0  0.59375 0.0078125 0  0.6015625 0.0078125 0  0.609375 0.0078125 0  0.6171875 0.0078125 0  0.625 0.0078125 0  0.6328125 0.0078125 0  0.640625 0.0078125 0  0.6484375 0.0078125 0  0.65625 0.0078125 0  0.6640625 0.0078125 0  0.671875 0.0078125 0  0.6796875 0.0078125 0  0.6875 0.0078125 0  0.6953125 0.0078125 0  0.703125 0.0078125 0  0.7109375 0.0078125 0  0.71875 0.0078125 0  0.7265625 0.0078125 0  0.734375 0.0078125 0  0.7421875 0.0078125 0  0.75 0.0078125 0  0.7578125 0.0078125 0  0.765625 0.0078125 0  0.7734375 0.0078125 0  0.78125 0.0078125 0  0.7890625 0.0078125 0  0.796875 0.0078125 0  0.8046875 0.0078125 0  0.8125 0.0078125 0  0.8203125 0.0078125 0  0.828125 0.0078125 0  0.8359375 0.0078125 0  0.84375 0.0078125 0  0.8515625 0.0078125 0  0.859375 0.0078125 0  0.8671875 0.0078125 0  0.875 0.0078125 0  0.8828125 0.0078125 0  0.890625 0.0078125 0  0.8984375 0.0078125 0  0.90625 0.0078125 0  0.9140625 0.0078125 0  0.921875 0.0078125 0  0.9296875 0.0078125 0  0.9375 0.0078125 0  0.9453125 0.0078125 0  0.953125 0.0078125 0  0.9609375 0.0078125 0  0.96875 0.0078125 0  0.9765625 0.0078125 0  0.984375 0.0078125 0  0.9921875 0.0078125 0  1 0.0078125 0  0 0.015625 0  0.0078125 0.015625 0  0.015625 0.015625 0  0.0234375 0.015625 0  0.03125 0.015625 0  0.0390625 0.015625 0  0.046875 0.015625 0  0.0546875 0.015625 0  0.0625 0.015625 0  0.0703125 0.015625 0  0.078125 0.015625 0  0.0859375 0.015625 0  0.09375 0.015625 0  0.1015625 0.015625 0  0.109375 0.015625 0  0.1171875 0.015625 0  0.125 0.015625 0  0.1328125 0.015625 0  0.140625 0.015625 0  0.1484375 0.015625 0  0.15625 0.015625 0  0.1640625 0.015625 0  0.171875 0.015625 0  0.1796875 0.015625 0  0.1875 0.015625 0  0.1953125 0.015625 0  0.203125 0.015625 0  0.2109375 0.015625 0  0.21875 0.015625 0  0.2265625 0.015625 0  0.234375 0.015625 0  0.2421875 0.015625 0  0.25 0.015625 0  0.2578125 0.015625 0  0.265625 0.015625 0  0.2734375 0.015625 0  0.28125 0.015625 0  0.2890625 0.015625 0  0.296875 0.015625 0  0.3046875 0.015625 0  0.3125 0.015625 0  0.3203125 0.015625 0  0.328125 0.015625 0  0.3359375 0.015625 0  0.34375 0.015625 0  0.3515625 0.015625 0  0.359375 0.015625 0  0.3671875 0.015625 0  0.375 0.015625 0  0.3828125 0.015625 0  0.390625 0.015625 0  0.3984375 0.015625 0  0.40625 0.015625 0  0.4140625 0.015625 0  0.421875 0.015625 0  0.4296875 0.015625 0  0.4375 0.015625 0  0.4453125 0.015625 0  0.453125 0.015625 0  0.4609375 0.015625 0  0.46875 0.015625 0  0.4765625 0.015625 0  0.484375 0.015625 0  0.4921875 0.015625 0  0.5 0.015625 0  0.5078125 0.015625 0  0.515625 0.015625 0  0.5234375 0.015625 0  0.53125 0.015625 0  0.5390625 0.015625 0  0.546875 0.015625 0  0.5546875 0.015625 0  0.5625 0.015625 0  0.5703125 0.015625 0  0.578125 0.015625 0  0.5859375 0.015625 0  0.59375 0.015625 0  0.6015625 0.015625 0  0.609375 0.015625 0  0.6171875 0.015625 0  0.625 0.015625 0  0.6328125 0.015625 0  0.640625 0.015625 0  0.6484375 0.015625 0  0.65625 0.015625 0  0.6640625 0.015625 0  0.671875 0.015625 0  0.6796875 0.015625 0  0.6875 0.015625 0  0.6953125 0.015625 0  0.703125 0.015625 0  0.7109375 0.015625 0  0.71875 0.015625 0  0.7265625 0.015625 0  0.734375 0.015625 0  0.7421875 0.015625 0  0.75 0.015625 0  0.7578125 0.015625 0  0.765625 0.015625 0  0.7734375 0.015625 0  0.78125 0.015625 0  0.7890625 0.015625 0  0.796875 0.015625 0  0.8046875 0.015625 0  0.8125 0.015625 0  0.8203125 0.015625 0  0.828125 0.015625 0  0.8359375 0.015625 0  0.84375 0.015625 0  0.8515625 0.015625 0  0.859375 0.015625 0  0.8671875 0.015625 0  0.875 0.015625 0  0.8828125 0.015625 0  0.890625 0.015625 0  0.8984375 0.015625 0  0.90625 0.015625 0  0.9140625 0.015625 0  0.921875 0.015625 0  0.9296875 0.015625 0  0.9375 0.015625 0  0.9453125 0.015625 0  0.953125 0.015625 0  0.9609375 0.015625 0  0.96875 0.015625 0  0.9765625 0.015625 0  0.984375 0.015625 0  0.9921875 0.015625 0  1 0.015625 0  0 0.0234375 0  0.0078125 0.0234375 0  0.015625 0.0234375 0  0.0234375 0.0234375 0  0.03125 0.0234375 0  0.0390625 0.0234375 0  0.046875 0.0234375 0  0.0546875 0.0234375 0  0.0625 0.0234375 0  0.0703125 0.0234375 0  0.078125 0.0234375 0  0.0859375 0.0234375 0  0.09375 0.0234375 0  0.1015625 0.0234375 0  0.109375 0.0234375 0  0.1171875 0.0234375 0  0.125 0.0234375 0  0.1328125 0.0234375 0  0.140625 0.0234375 0  0.1484375 0.0234375 0  0.15625 0.0234375 0  0.1640625 0.0234375 0  0.171875 0.0234375 0  0.1796875 0.0234375 0  0.1875 0.0234375 0  0.1953125 0.0234375 0  0.203125 0.0234375 0  0.2109375 0.0234375 0  0.21875 0.0234375 0  0.2265625 0.0234375 0  0.234375 0.0234375 0  0.2421875 0.0234375 0  0.25 0.0234375 0  0.2578125 0.0234375 0  0.265625 0.0234375 0  0.2734375 0.0234375 0  0.28125 0.0234375 0  0.2890625 0.0234375 0  0.296875 0.0234375 0  0.3046875 0.0234375 0  0.3125 0.0234375 0  0.3203125 0.0234375 0  0.328125 0.0234375 0  0.3359375 0.0234375 0  0.34375 0.0234375 0  0.3515625 0.0234375 0  0.359375 0.0234375 0  0.3671875 0.0234375 0  0.375 0.0234375 0  0.3828125 0.0234375 0  0.390625 0.0234375 0  0.3984375 0.0234375 0  0.40625 0.0234375 0  0.4140625 0.0234375 0  0.421875 0.0234375 0  0.4296875 0.0234375 0  0.4375 0.0234375 0  0.4453125 0.0234375 0  0.453125 0.0234375 0  0.4609375 0.0234375 0  0.46875 0.0234375 0  0.4765625 0.0234375 0  0.484375 0.0234375 0  0.4921875 0.0234375 0  0.5 0.0234375 0  0.5078125 0.0234375 0  0.515625 0.0234375 0  0.5234375 0.0234375 0  0.53125 0.0234375 0  0.5390625 0.0234375 0  0.546875 0.0234375 0  0.5546875 0.0234375 0  0.5625 0.0234375 0  0.5703125 0.0234375 0  0.578125 0.0234375 0  0.5859375 0.0234375 0  0.59375 0.0234375 0  0.6015625 0.0234375 0  0.609375 0.0234375 0  0.6171875 0.0234375 0  0.625 0.0234375 0  0.6328125 0.0234375 0  0.640625 0.0234375 0  0.6484375 0.0234375 0  0.65625 0.0234375 0  0.6640625 0.0234375 0  0.671875 0.0234375 0  0.6796875 0.0234375 0  0.6875 0.0234375 0  0.6953125 0.0234375 0  0.703125 0.0234375 0  0.7109375 0.0234375 0  0.71875 0.0234375 0  0.7265625 0.0234375 0  0.734375 0.0234375 0  0.7421875 0.0234375 0  0.75 0.0234375 0  0.7578125 0.0234375 0  0.765625 0.0234375 0  0.7734375 0.0234375 0  0.78125 0.0234375 0  0.7890625 0.0234375 0  0.796875 0.0234375 0  0.8046875 0.0234375 0  0.8125 0.0234375 0  0.8203125 0.0234375 0  0.828125 0.0234375 0  0.8359375 0.0234375 0  0.84375 0.0234375 0  0.8515625 0.0234375 0  0.859375 0.0234375 0  0.8671
[...]
<PointData  Scalars="u_sol"> 
<DataArray  type="Float64"  Name="u_sol"  format="ascii">2.0015778497252428e-06  -1.1790339714789364e-05  -2.1960368830558722e-05  -2.0844733486558809e-05  -1.2721224904234048e-05  1.4021683075458635e-07  1.5654082806439748e-05  3.2177557091295472e-05  4.8321260582254187e-05  6.3000714553680250e-05  7.5474653200125055e-05  8.5367874937291411e-05  9.2657097606194114e-05  9.7621952183850693e-05  1.0077322626666688e-04  1.0277144538851323e-04  1.0434786297354650e-04  1.0623495024949518e-04  1.0911008788951697e-04  1.1355187734899953e-04  1.2001053615493913e-04  1.2879104658943176e-04  1.4005151980532815e-04  1.5381845674856381e-04  1.7001774482484807e-04  1.8851800278420035e-04  2.0917843190606139e-04  2.3189055574166005e-04  2.5660505678124949e-04  2.8333808852620568e-04  3.1215568061330285e-04  3.4314162218276694e-04  3.7636221452239273e-04  4.1183704922152705e-04  4.4950824886733938e-04  4.8921224803012350e-04  5.3064768128157280e-04  5.7339711012285974e-04  6.1691380323790953e-04  6.6056680869267643e-04  7.0353204557291641e-04  7.4482856912776890e-04  7.8330187858072795e-04  8.1757135407900289e-04  8.4623768868058924e-04  8.6780512382012183e-04  8.8068018123612529e-04  8.8324838068434364e-04  8.7396289454713953e-04  8.5136890309887631e-04  8.1411823568007047e-04  7.6106079352824207e-04  6.9133886515018359e-04  6.0443139620616380e-04  5.0020315144750011e-04  3.7895029966039120e-04  2.4143485451654084e-04  8.8908903254381457e-05  -7.6873155347023867e-05  -2.5365431235255682e-04  -4.3868640403422240e-04  -6.2875560380266189e-04  -8.2021557596337238e-04  -1.0090447290291753e-03  -1.1909174116716409e-03  -1.3611483669922590e-03  -1.5150747865518015e-03  -1.6484995486763679e-03  -1.7563874711274937e-03  -1.8342245060294425e-03  -1.8779861912147596e-03  -1.8841929591257003e-03  -1.8501761939729770e-03  -1.7742375987415372e-03  -1.6558459158423767e-03  -1.4957839843484512e-03  -1.2962616209373798e-03  -1.0609705928216627e-03  -7.9505938350147708e-04  -5.0505947771103022e-04  -1.9874111575941535e-04  1.1543303238856249e-04  4.2862915579926431e-04  7.3151180211476286e-04  1.0144040260848192e-03  1.2691198462817476e-03  1.4903140667891055e-03  1.6732011024188467e-03  1.8124051419478198e-03  1.9050780213004216e-03  1.9514903225857146e-03  1.9554987035512866e-03  1.9203095070385713e-03  1.8500277346985043e-03  1.7505081583839967e-03  1.6280960085395669e-03  1.4895125637442448e-03  1.3409078028875107e-03  1.1875697578520193e-03  1.0352227509526615e-03  8.8791458006353503e-04  7.4913420954378417e-04  6.2139493510537057e-04  5.0626048181977713e-04  4.0457059526883974e-04  3.1644954268934030e-04  2.4148871798111121e-04  1.7886851835561824e-04  1.2750838541498451e-04  8.6169221028401834e-05  5.3515679202208017e-05  2.8240011107590170e-05  9.1238019793999311e-06  -4.9219280120774754e-06  -1.4886974788963342e-05  -2.1650846065611936e-05  -2.5969561133495628e-05  -2.8504147280858635e-05  -2.9827698128929037e-05  -3.0427302490432383e-05  -3.0688647045482496e-05  -3.0857589959536159e-05  -3.0975108244137721e-05  -3.0781242756021653e-05  -2.9609159032320232e-05  -2.6233328073835918e-05  -1.9162049226001083e-05  -6.8953390287083563e-06  1.6692316306605599e-06  -1.0822948617425441e-06  -3.2916282016458414e-07  9.5696063345834098e-05  3.3140501150588056e-04  6.9336628911490850e-04  1.1543730822199528e-03  1.6807029308268679e-03  2.2379816146818046e-03  2.7939971818017537e-03  3.3210373258731355e-03  3.7975038045830285e-03  4.2088479738257040e-03  4.5477684504766150e-03  4.8137327049974036e-03  5.0119474392909310e-03  5.1519482074280885e-03  5.2459856142232824e-03  5.3073704997380336e-03  5.3489129118262316e-03  5.3815652606916042e-03  5.4133547863619465e-03  5.4486764630996632e-03  5.4879899076123581e-03  5.5279275317478031e-03  5.5617712763120688e-03  5.5801952819863939e-03  5.5721247765267903e-03  5.5255433201798548e-03  5.4281012578002441e-03  5.2674404423584120e-03  5.0312359332465072e-03  4.7070289150843879e-03  4.2819629644391781e-03  3.7425469413923601e-03  3.0745570031524942e-03  2.2631178299593845e-03  1.2929553601689760e-03  1.4869537740465962e-04  -1.1846977469479093e-03  -2.7214681423402124e-03  -4.4743772067012150e-03  -6.4541567990964071e-03  -8.6689278472084786e-03  -1.1123594295155564e-02  -1.3819422861822014e-02  -1.6753472073172643e-02  -1.9918154006877003e-02  -2.3300957657548915e-02  -2.6884284289034565e-02  -3.0645400831584537e-02  -3.4556616496650351e-02  -3.8585521373602043e-02  -4.2695356936673132e-02  -4.6845511698850151e-02  -5.0992093739077850e-02  -5.5088559760966153e-02  -5.9086374260310173e-02  -6.2935679153746815e-02  -6.6585956933123636e-02  -6.9986677602525568e-02  -7.3087925892682856e-02  -7.5841010165918238e-02  -7.8199063472736918e-02  -8.0117639462828044e-02  -8.1555307307124042e-02  -8.2474421489105346e-02  -8.2841565607226997e-02  -8.2627550225094479e-02  -8.1809722132394194e-02  -8.0372117047578531e-02  -7.8306101435825823e-02  -7.5611314924857426e-02  -7.2296380765074747e-02  -6.8379622906937526e-02  -6.3889616499605173e-02  -5.8865569496344680e-02  -5.3357456483579084e-02  -4.7425854221596557e-02  -4.1141434551205648e-02  -3.4584055650024738e-02  -2.7841459832128022e-02  -2.1007571077825214e-02  -1.4180183583422943e-02  -7.4587155685029586e-03  -9.4157824481659689e-04  5.2755790177020636e-03  1.1102115366992515e-02  1.6458141754366638e-02  2.1277975041366418e-02  2.5508315062703662e-02  2.9108632133595429e-02  3.2052067719239047e-02  3.4330561129040850e-02  3.5952383467565942e-02  3.6939415295792755e-02  3.7326785128260064e-02  3.7161207478480535e-02  3.6499557578251088e-02  3.5405874726097755e-02  3.3947461116010137e-02  3.2194945717275936e-02  3.0218224445821087e-02  2.8084767452923064e-02  2.5857725377961729e-02  2.3594142312327471e-02  2.1343919379514902e-02  1.9149012819566463e-02  1.7043164389115191e-02  1.5052007595235667e-02  1.3193544386445556e-02  1.1478906599463434e-02  9.9132342944100310e-03  8.4966418114106289e-03  7.2251950554233823e-03  6.0919209383403332e-03  5.0876556237287119e-03  4.2017740622454641e-03  3.4229220001993983e-03  2.7397200736891418e-03  2.1415306961421778e-03  1.6193226741245054e-03  1.1666230312146475e-03  7.8045400702724823e-04  4.6203107724662816e-04  2.1670171109190069e-04  5.2492459070773276e-05  -2.5462870213252170e-05  -2.4024571332694912e-05  3.8746579676750726e-06  -1.2495718459061341e-05  6.2266020550565606e-05  3.1981119390732312e-04  7.8171199343019361e-04  1.4314930923857614e-03  2.2306752084656311e-03  3.1295620976935366e-03  4.0753057256066134e-03  5.0173789722491339e-03  5.9115637432821874e-03  6.7227045886464696e-03  7.4262862254744141e-03  8.0088736558681459e-03  8.4675145261912145e-03  8.8082806512634702e-03  9.0441766077001204e-03  9.1926651152794674e-03  9.2730532044202688e-03  9.3039637928769865e-03  9.3010863650244014e-03  9.2753770414281105e-03  9.2318363069583496e-03  9.1689459078555906e-03  9.0787779347204292e-03  8.9476981566384787e-03  8.7574974474385406e-03  8.4867141826762155e-03  8.1118893704194023e-03  7.6085432790174217e-03  6.9517583890164238e-03  6.1163698911849045e-03  5.0768847502256640e-03  3.8073357705463249e-03  2.2812494677119958e-03  4.7179442061205039e-04  -1.6478271071219313e-03  -4.1037066059029653e-03  -6.9201988474852883e-03  -1.0118864687706912e-02  -1.3717332035760164e-02  -1.7728275974294303e-02  -2.2158254064169405e-02  -2.7006628802571844e-02  -3.2264670120195973e-02  -3.7914961388572047e-02  -4.3930997704835315e-02  -5.0277092236715691e-02  -5.6908631019657846e-02  -6.3772672040424569e-02  -7.0808827625735385e-02  -7.7950242246029408e-02  -8.5124966148047446e-02  -9.2257405864888731e-02  -9.9269740764327388e-02  -1.0608333701391766e-01  -1.1262007405605985e-01  -1.1880354338295719e-01  -1.2456009442825457e-01  -1.2981971928716107e-01  -1.3451678169662268e-01  -1.3859060697704795e-01  -1.4198595642994108e-01  -1.4465341667505821e-01  -1.4654972371650851e-01  -1.4763809165918260e-01  -1.4788832991334427e-01  -1.4727696825141776e-01  -1.4578894633063871e-01  -1.4341712970548118e-01  -1.4016205369117637e-01  -1.3603294403816604e-01  -1.3104800955352405e-01  -1.2523489237996102e-01  -1.1863103856347061e-01  -1.1128400276212577e-01  -1.0325163526619642e-01  -9.4602107453664500e-02  -8.5413729041039679e-02  -7.5774511206160744e-02  -6.5781434407597011e-02  -5.5539331416730217e-02  -4.5159720125378687e-02  -3.4759466695828869e-02  -2.4457941223558662e-02  -1.4374643289875574e-02  -4.6268279767254315e-03  4.6728891964667747e-03  1.3416975114331257e-02  2.1505657866100647e-02  2.8852331338599574e-02  3.5387051631919700e-02  4.1057022146899269e-02  4.5822632496369191e-02  4.9660819336097818e-02  5.2568455696017362e-02  5.4561435160394911e-02  5.5673073085732591e-02  5.5952208470425341e-02  5.5463375376052781e-02  5.4285056140457470e-02  5.2503770408261687e-02  5.0214203381563217e-02  4.7514853309925421e-02  4.4504586775041557e-02  4.1279747218075244e-02  3.7930864365556885e-02  3.4540206289091498e-02  3.1179777761447338e-02  2.7910038203646338e-02  2.4779342272451408e-02  2.1824051525927396e-02  1.9069185919912426e-02  1.6529556460497315e-02  1.4211183503335898e-02  1.2112727066395136e-02  1.0227024592000341e-02  8.5426709973990718e-03  7.0454504314826161e-03  5.7198051069274726e-03  4.5503400492760910e-03  3.5233881713679265e-03  2.6285817584092474e-03  1.8602353948180131e-03  1.2181791972959949e-03  7.0732602514555186e-04  3.3523654052304688e-04  1.0536328440841955e-04  8.4233775389385957e-06  -2.1476082771363899e-06  -2.3794179032329807e-05  1.1976891616789137e-04  5.3575690901259401e-04  1.2066104973490945e-03  2.1006365773916379e-03  3.1682081005762843e-03  4.3488539225935274e-03  5.5783619436776677e-03  6.7950957739439100e-03  7.9448153588676414e-03  8.9840351097335014e-03  9.8819211619055984e-03  1.0620810854011885e-02  1.1195501404834694e-02  1.1611519089981402e-02  1.1882623947202275e-02  1.2027825856885051e-02  1.2068191242905184e-02  1.2023708039943116e-02  1.1910464736110590e-02  1.1738368434717854e-02  1.1509584943960628e-02  1.1217819786914541e-02  1.0848456704747479e-02  1.0379451709242675e-02  9.7827567017114789e-03  9.0259712316227668e-03  8.0739112872095543e-03  6.8898435897173172e-03  5.4362796409089843e-03  3.6754064221635142e-03  1.5693212781428061e-03  -9.1976978772075860e-04  -3.8291481058168588e-03  -7.1947296885152227e-03  -1.1049824584794405e-02  -1.5423684851131502e-02  -2.0339957832511770e-02  -2.5814900709767198e-02  -3.1855627644455424e-02  -3.8458616812741354e-02  -4.5608482908500600e-02  -5.3277144688385750e-02  -6.1423482851402887e-02  -6.9993323837108129e-02  -7.8920307273312409e-02  -8.8127237231549013e-02  -9.7527834993941867e-02  -1.0702887019681744e-01  -1.1653251114786341e-01  -1.2593884697385946e-01  -1.3514817786623920e-01  -1.4406314658662064e-01  -1.5259060778812344e-01  -1.6064311155757136e-01  -1.6814001067009388e-01  -1.7500819559899120e-01  -1.8118249261400002e-01  -1.8660577629655264e-01  -1.9122885692303471e-01  -1.9501020553263795e-01  -1.9791557886728031e-01  -1.9991759451260888e-01  -2.0099532368182235e-01  -2.0113386299906497e-01  -2.0032410443665000e-01  -1.9856334579232748e-01  -1.9585427495346544e-01  -1.9220395566232321e-01  -1.8762549884209187e-01  -1.8213781216586905e-01  -1.7576605066999154e-01  -1.6854207583260569e-01  -1.6050495261372191e-01  -1.5170146735449663e-01  -1.4218659839672607e-01  -1.3202389445104951e-01  -1.2128570059390285e-01  -1.1005317422712708e-01  -9.8416040503007937e-02  -8.6472114732630986e-02  -7.4326296320913712e-02  -6.2089121102765148e-02  -4.9875933507854818e-02  -3.7804976557677276e-02  -2.5994280069062018e-02  -1.4558951101172266e-02  -3.6101624078287622e-03  6.7455656790482059e-03  1.6409688716846407e-02  2.5292708135512074e-02  3.3317143121435223e-02  4.0420806524800248e-02  4.6557042197161468e-02  5.1693578896940276e-02  5.5812886815819307e-02  5.8914318539957128e-02  6.1015562740776338e-02  6.2150735782418608e-02  6.2371355799325685e-02  6.1747056150885091e-02  6.0359617926093352e-02  5.8303439274731444e-02  5.5682438234934455e-02  5.2605754525734134e-02  4.9184396317626944e-02  4.5527012710040296e-02  4.1736149606771147e-02  3.7905000398162449e-02  3.4114874376731434e-02  3.0433536045544021e-02  2.6914577393168399e-02  2.3597595982997623e-02  2.0509058166008398e-02  1.7663739154707540e-02  1.5066483030708375e-02  1.2714069030826974e-02  1.0597313476299254e-02  8.7031601844419978e-03  7.0168244461826009e-03  5.5239570248891874e-03  4.2127302202004937e-03  3.0756280913828244e-03  2.1105632069552942e-03  1.3207629362647199e-03  7.1285010053092203e-04  2.9231542792594432e-04  5.7612004852183152e-05  -1.1672491232879448e-05  -3.3001270981042853e-05  1.6630500859066589e-04  7.1842771546269581e-04  1.5711353846756748e-03  2.6719419868443620e-03  3.9568230253758377e-03  5.3543449294577820e-03  6.7910389566826533e-03  8.1974306478134785e-03  9.5129222510159824e-03  1.0689213917399142e-02  1.1692119839624466e-02  1.2501873269692756e-02  1.3112111194800775e-02  1.3527792631440895e-02  1.3762330245440244e-02  1.3834222258201880e-02  1.3763470783725687e-02  1.3568073112231386e-02  1.3260870008689597e-02  1.2847012021915412e-02  1.2322276994014003e-02  1.1672380062814527e-02  1.0873288477410134e-02  9.8923985832973255e-03  8.6903001218566565e-03  7.2227532264496170e-03  5.4425197870599422e-03  3.3008461461546683e-03  7.4854125413910432e-04  -2.2632830115551497e-03  -5.7825065268755178e-03  -9.8549500786213190e-03  -1.4522952164706712e-02  -1.9823628647929369e-02  -2.5786746624685396e-02  -3.2432338259128050e-02  -3.9768424242896810e-02  -4.7788986152358229e-02  -5.6472356629818338e-02  -6.5779990501739410e-02  -7.5656226468524504e-02  -8.6028881175705382e-02  -9.6810660915551114e-02  -1.0790159605258298e-01  -1.1919189448665465e-01  -1.3056534522530844e-01  -1.4190296962350382e-01  -1.5308657923917920e-01  -1.6400203151123563e-01  -1.7454192628419829e-01  -1.8460775219929540e-01  -1.9411132875661405e-01  -2.0297556924860491e-01  -2.1113465359814565e-01  -2.1853369495367586e-01  -2.2512802233610832e-01  -2.3088219912171090e-01  -2.3576889154695288e-01  -2.3976768653361655e-01  -2.4286394073021733e-01  -2.4504772298960983e-01  -2.4631290125882443e-01  -2.4665639073009871e-01  -2.4607765721988739e-01  -2.4457864173013766e-01  -2.4216283029186478e-01  -2.3883461361627942e-01  -2.3460163402386369e-01  -2.2947400814422420e-01  -2.2346512477921560e-01  -2.1659237487580588e-01  -2.0887795798419734e-01  -2.0034979031746122e-01  -1.9104242762718221e-01  -1.8099796771763585e-01  -1.7026686526475812e-01  -1.5890859057825010e-01  -1.4699206014060781e-01  -1.3459576959236191e-01  -1.2180752038686696e-01  -1.0872383776965382e-01  -9.5449015636983103e-02  -8.2093186474906529e-02  -6.8770506195632491e-02  -5.5598122189156260e-02  -4.2694471860183131e-02  -3.0173726340822792e-02  -1.8142331104363082e-02  -6.7015322098287278e-03  4.0541131953631439e-03  1.4037963165934739e-02  2.3176398514148242e-02  3.1407162362081263e-02  3.8678960314099543e-02  4.4954171958240696e-02  5.0208755793098685e-02  5.4431301048928793e-02  5.7624322867098031e-02  5.9803747781079740e-02  6.1002351330491908e-02  6.1272506176162242e-02  6.0681064827539120e-02  5.9309782596118181e-02  5.7254526841759391e-02  5.4621264462106550e-02  5.1522667089778477e-02  4.8073677992665799e-02  4.4386917210370219e-02  4.0568393267870720e-02  3.6713897012002540e-02  3.2906238176089501e-02  2.9213575972660274e-02  2.5688849115734966e-02  2.2370247046197236e-02  1.9282410503365644e-02  1.6438228785511010e-02  1.3840936131370241e-02  1.1486556884806414e-02  9.3664746021381983e-03  7.4700660476832480e-03  5.7872710710519144e-03  4.3108958157213927e-03  3.0383530659804131e-03  1.9725080872900675e-03  1.1213141562084635e-03  4.9639527590774517e-04  1.1052956137963258e-04  -2.2048940752083089e-05  -4.0304613320767890e-05  2.0271029470789157e-04  8.6743669226956770e-04  1.8744379885992954e-03  3.1492144641995620e-03  4.6107869549569204e-03  6.1749822494157631e-03  7.7587872360692931e-03  9.2858805519954058e-03  1.0691177946294133e-02  1.1923887131461483e-02  1.2948840195925787e-02  1.3746224444936147e-02  1.4309968790309874e-02  1.4645102374892178e-02  1.4764401438191441e-02  1.4684622795946553e-02  1.4422606936167389e-02  1.3991541959264362e-02  1.3397672136701328e-02  1.2637759092468061e-02  1.1697543041270037e-02  1.0551346634036472e-02  9.1628171617424981e-03  7.4866056782602990e-03  5.4705942394980694e-03  3.0582695887284121e-03  1.9089744846676463e-04  -3.1907459768705129e-03  -7.1449610610497009e-03  -1.1727658088695161e-02  -1.6990665803417394e-02  -2.2979682962237770e-02  -2.9731669561249313e-02  -3.7271905622226792e-02  -4.5611061336539013e-02  -5.4742498401811043e-02  -6.4639960270661628e-02  -7.5256270082295351e-02  -8.6523073339863255e-02  -9.8351955740470426e-02  -1.1063661870864799e-01  -1.2325625177005546e-01  -1.3607989371531837e-01  -1.4897122037225294e-01  -1.6179360134059376e-01  -1.7441482681768605e-01  -1.8671118538666873e-01  -1.9857065231583604e-01  -2.0989502752721351e-01  -2.2060104272312506e-01  -2.3062046563901906e-01  -2.3989940243152164e-01  -2.4839699063069681e-01  -2.5608368597431841e-01  -2.6293934592720514e-01  -2.6895127526556117e-01  -2.7411236520555121e-01  -2.7841941718660218e-01  -2.8187170788163268e-01  -2.8446982280135508e-01  -2.8621476364429593e-01  -2.8710731845116566e-01  -2.8714768102123905e-01  -2.8633532426828995e-01  -2.8466864168281186e-01  -2.8214510212869909e-01  -2.7876314288933562e-01  -2.7452131231058025e-01  -2.6941934469704082e-01  -2.6345896630136650e-01  -2.5664479431333964e-01  -2.4898538721898505e-01  -2.4049437741684712e-01  -2.3119166635800611e-01  -2.2110463940779876e-01  -2.1026934003814141e-01  -1.9873153091475826e-01  -1.8654755405249918e-01  -1.7378489160028937e-01  -1.6052235652127034e-01  -1.4684975942964107e-01  -1.3286698549710685e-01  -1.1868275896156036e-01  -1.0441269935759918e-01  -9.0176245372430464e-02  -7.6093335054351396e-02  -6.2284050663731334e-02  -4.8866334491397823e-02  -3.5949748135063880e-02  -2.3632416932804261e-02  -1.2000093880841663e-02  -1.1319775211342390e-03  8.9032858322060648e-03  1.8050274751486441e-02  2.6264010177471642e-02  3.3508277253226297e-02  3.9756535648610050e-02  4.4993467173873238e-02  4.9215272399435968e-02  5.2425719547494559e-02  5.4640857385476693e-02  5.5894918579696258e-02  5.6237778095311323e-02  5.5734648087948674e-02  5.4467186853412737e-02  5.2530866384276724e-02  5.0031890355272474e-02  4.7083091166654427e-02  4.3799124793820692e-02  4.0291502827025934e-02  3.6664103110356179e-02  3.3009545705364393e-02  2.9406688381605737e-02  2.5919223791236925e-02  2.2595522743599522e-02  1.9469553031160488e-02  1.6562535969990314e-02  1.3885108753873074e-02  1.1439961513740323e-02  9.2247027029587654e-03  7.2348193187089758e-03  5.4665538389976421e-03  3.9194917411904196e-03  2.5987290026910680e-03  1.5164561847738913e-03  6.9375641699726594e-04  1.6126995692955563e-04  -3.2030950437576511e-05  -4.6272780919021004e-05  2.3243343679099439e-04  9.9150507784555308e-04  2.1293938177707294e-03  3.5500457726215908e-03  5.1539307417734874e-03  6.8423418843518600e-03  8.5217362401266636e-03  1.0109037245961548e-02  1.1535722212614175e-02  1.2750204182484222e-02  1.3718304410301047e-02  1.4422033057061185e-02  1.4857046434213962e-02  1.5029188710765314e-02  1.4950487776947399e-02  1.4634917319266581e-02  1.4094213784684681e-02  1.3334015903783232e-02  1.2350651212407287e-02  1.1128869053158214e-02  9.6407736021126237e-03  7.8461013536246550e-03  5.6937321529678744e-03  3.1241168779174932e-03  7.2198833886139070e-05  -3.5297333771295365e-03  -7.7495439608606621e-03  -1.2652979088948220e-02  -1.8301493947214545e-02  -2.4749918897450700e-02  -3.2043567616800731e-02  -4.0214843043184040e-02  -4.9279611089915604e-02  -5.9233595155405508e-02  -7.0049386790964632e-02  -8.1674618878875477e-02  -9.4031679994035319e-02  -1.0701892887796072e-01  -1.2051367697665986e-01  -1.3437665951271802e-01  -1.4