<?xml version="1.0"?>
<VTKFile type="UnstructuredGrid"  version="0.1"  >
<UnstructuredGrid>
<Piece  NumberOfPoints="16641" NumberOfCells="16384">
<Points>
<DataArray  type="Float64"  NumberOfComponents="3"  format="ascii">0 0 0  0.0078125 0 0  0.015625 0 0  0.0234375 0 0  0.03125 0 0  0.0390625 0 0  0.046875 0 0  0.0546875 0 0  0.0625 0 0  0.0703125 0 0  0.078125 0 0  0.0859375 0 0  0.09375 0 0  0.1015625 0 0  0.109375 0 0  0.1171875 0 0  0.125 0 0  0.1328125 0 0  0.140625 0 0  0.1484375 0 0  0.15625 0 0  0.1640625 0 0  0.171875 0 0  0.1796875 0 0  0.1875 0 0  0.1953125 0 0  0.203125 0 0  0.2109375 0 0  0.21875 0 0  0.2265625 0 0  0.234375 0 0  0.2421875 0 0  0.25 0 0  0.2578125 0 0  0.265625 0 0  0.2734375 0 0  0.28125 0 0  0.2890625 0 0  0.296875 0 0  0.3046875 0 0  0.3125 0 0  0.3203125 0 0  0.328125 0 0  0.3359375 0 0  0.34375 0 0  0.3515625 0 0  0.359375 0 0  0.3671875 0 0  0.375 0 0  0.3828125 0 0  0.390625 0 0  0.3984375 0 0  0.40625 0 0  0.4140625 0 0  0.421875 0 0  0.4296875 0 0  0.4375 0 0  0.4453125 0 0  0.453125 0 0  0.4609375 0 0  0.46875 0 0  0.4765625 0 0  0.484375 0 0  0.4921875 0 0  0.5 0 0  0.5078125 0 0  0.515625 0 0  0.5234375 0 0  0.53125 0 0  0.5390625 0 0  0.546875 0 0  0.5546875 0 0  0.5625 0 0  0.5703125 0 0  0.578125 0 0  0.5859375 0 0  0.59375 0 0  0.6015625 0 0  0.609375 0 0  0.6171875 0 0  0.625 0 0  0.6328125 0 0  0.640625 0 0  0.6484375 0 0  0.65625 0 0  0.6640625 0 0  0.671875 0 0  0.6796875 0 0  0.6875 0 0  0.6953125 0 0  0.703125 0 0  0.7109375 0 0  0.71875 0 0  0.7265625 0 0  0.734375 0 0  0.7421875 0 0  0.75 0 0  0.7578125 0 0  0.765625 0 0  0.7734375 0 0  0.78125 0 0  0.7890625 0 0  0.796875 0 0  0.8046875 0 0  0.8125 0 0  0.8203125 0 0  0.828125 0 0  0.8359375 0 0  0.84375 0 0  0.8515625 0 0  0.859375 0 0  0.8671875 0 0  0.875 0 0  0.8828125 0 0  0.890625 0 0  0.8984375 0 0  0.90625 0 0  0.9140625 0 0  0.921875 0 0  0.9296875 0 0  0.9375 0 0  0.9453125 0 0  0.953125 0 0  0.9609375 0 0  0.96875 0 0  0.9765625 0 0  0.984375 0 0  0.9921875 0 0  1 0 0  0 0.0078125 0  0.0078125 0.0078125 0  0.015625 0.0078125 0  0.0234375 0.0078125 0  0.03125 0.0078125 0  0.0390625 0.0078125 0  0.046875 0.0078125 0  0.0546875 0.0078125 0  0.0625 0.0078125 0  0.0703125 0.0078125 0  0.078125 0.0078125 0  0.0859375 0.0078125 0  0.09375 0.0078125 0  0.1015625 0.0078125 0  0.109375 0.0078125 0  0.1171875 0.0078125 0  0.125 0.0078125 0  0.1328125 0.0078125 0  0.140625 0.0078125 0  0.1484375 0.0078125 0  0.15625 0.0078125 0  0.1640625 0.0078125 0  0.171875 0.0078125 0  0.1796875 0.0078125 0  0.1875 0.0078125 0  0.1953125 0.0078125 0  0.203125 0.0078125 0  0.2109375 0.0078125 0  0.21875 0.0078125 0  0.2265625 0.0078125 0  0.234375 0.0078125 0  0.2421875 0.0078125 0  0.25 0.0078125 0  0.2578125 0.0078125 0  0.265625 0.0078125 0  0.2734375 0.0078125 0  0.28125 0.0078125 0  0.2890625 0.0078125 0  0.296875 0.0078125 0  0.3046875 0.0078125 0  0.3125 0.0078125 0  0.3203125 0.0078125 0  0.328125 0.0078125 0  0.3359375 0.0078125 0  0.34375 0.0078125 0  0.3515625 0.0078125 0  0.359375 0.0078125 0  0.3671875 0.0078125 0  0.375 0.0078125 0  0.3828125 0.0078125 0  0.390625 0.0078125 0  0.3984375 0.0078125 0  0.40625 0.0078125 0  0.4140625 0.0078125 0  0.421875 0.0078125 0  0.4296875 0.0078125 0  0.4375 0.0078125 0  0.4453125 0.0078125 0  0.453125 0.0078125 0  0.4609375 0.0078125 0  0.46875 0.0078125 0  0.4765625 0.0078125 0  0.484375 0.0078125 0  0.4921875 0.0078125 0  0.5 0.0078125 0  0.5078125 0.0078125 0  0.515625 0.0078125 0  0.5234375 0.0078125 0  0.53125 0.0078125 0  0.5390625 0.0078125 0  0.546875 0.0078125 0  0.5546875 0.0078125 0  0.5625 0.0078125 0  0.5703125 0.0078125 0  0.578125 0.0078125 0  0.5859375 0.0078125 0  0.59375 0.0078125 0  0.6015625 0.0078125 0  0.609375 0.0078125 0  0.6171875 0.0078125 0  0.625 0.0078125 0  0.6328125 0.0078125 0  0.640625 0.0078125 0  0.6484375 0.0078125 0  0.65625 0.0078125 0  0.6640625 0.0078125 0  0.671875 0.0078125 0  0.6796875 0.0078125 0  0.6875 0.0078125 0  0.6953125 0.0078125 0  0.703125 0.0078125 0  0.7109375 0.0078125 0  0.71875 0.0078125 0  0.7265625 0.0078125 0  0.734375 0.0078125 0  0.7421875 0.0078125 0  0.75 0.0078125 0  0.7578125 0.0078125 0  0.765625 0.0078125 0  0.7734375 0.0078125 0  0.78125 0.0078125 0  0.7890625 0.0078125 0  0.796875 0.0078125 0  0.8046875 0.0078125 0  0.8125 0.0078125 0  0.8203125 0.0078125 0  0.828125 0.0078125 0  0.8359375 0.0078125 0  0.84375 0.0078125 0  0.8515625 0.0078125 0  0.859375 0.0078125 0  0.8671875 0.0078125 0  0.875 0.0078125 0  0.8828125 0.0078125 0  0.890625 0.0078125 0  0.8984375 0.0078125 0  0.90625 0.0078125 0  0.9140625 0.0078125 0  0.921875 0.0078125 0  0.9296875 0.0078125 0  0.9375 0.0078125 0  0.9453125 0.0078125 0  0.953125 0.0078125 0  0.9609375 0.0078125 0  0.96875 0.0078125 0  0.9765625 0.0078125 0  0.984375 0.0078125 0  0.9921875 0.0078125 0  1 0.0078125 0  0 0.015625 0  0.0078125 0.015625 0  0.015625 0.015625 0  0.0234375 0.015625 0  0.03125 0.015625 0  0.0390625 0.015625 0  0.046875 0.015625 0  0.0546875 0.015625 0  0.0625 0.015625 0  0.0703125 0.015625 0  0.078125 0.015625 0  0.0859375 0.015625 0  0.09375 0.015625 0  0.1015625 0.015625 0  0.109375 0.015625 0  0.1171875 0.015625 0  0.125 0.015625 0  0.1328125 0.015625 0  0.140625 0.015625 0  0.1484375 0.015625 0  0.15625 0.015625 0  0.1640625 0.015625 0  0.171875 0.015625 0  0.1796875 0.015625 0  0.1875 0.015625 0  0.1953125 0.015625 0  0.203125 0.015625 0  0.2109375 0.015625 0  0.21875 0.015625 0  0.2265625 0.015625 0  0.234375 0.015625 0  0.2421875 0.015625 0  0.25 0.015625 0  0.2578125 0.015625 0  0.265625 0.015625 0  0.2734375 0.015625 0  0.28125 0.015625 0  0.2890625 0.015625 0  0.296875 0.015625 0  0.3046875 0.015625 0  0.3125 0.015625 0  0.3203125 0.015625 0  0.328125 0.015625 0  0.3359375 0.015625 0  0.34375 0.015625 0  0.3515625 0.015625 0  0.359375 0.015625 0  0.3671875 0.015625 0  0.375 0.015625 0  0.3828125 0.015625 0  0.390625 0.015625 0  0.3984375 0.015625 0  0.40625 0.015625 0  0.4140625 0.015625 0  0.421875 0.015625 0  0.4296875 0.015625 0  0.4375 0.015625 0  0.4453125 0.015625 0  0.453125 0.015625 0  0.4609375 0.015625 0  0.46875 0.015625 0  0.4765625 0.015625 0  0.484375 0.015625 0  0.4921875 0.015625 0  0.5 0.015625 0  0.5078125 0.015625 0  0.515625 0.015625 0  0.5234375 0.015625 0  0.53125 0.015625 0  0.5390625 0.015625 0  0.546875 0.015625 0  0.5546875 0.015625 0  0.5625 0.015625 0  0.5703125 0.015625 0  0.578125 0.015625 0  0.5859375 0.015625 0  0.59375 0.015625 0  0.6015625 0.015625 0  0.609375 0.015625 0  0.6171875 0.015625 0  0.625 0.015625 0  0.6328125 0.015625 0  0.640625 0.015625 0  0.6484375 0.015625 0  0.65625 0.015625 0  0.6640625 0.015625 0  0.671875 0.015625 0  0.6796875 0.015625 0  0.6875 0.015625 0  0.6953125 0.015625 0  0.703125 0.015625 0  0.7109375 0.015625 0  0.71875 0.015625 0  0.7265625 0.015625 0  0.734375 0.015625 0  0.7421875 0.015625 0  0.75 0.015625 0  0.7578125 0.015625 0  0.765625 0.015625 0  0.7734375 0.015625 0  0.78125 0.015625 0  0.7890625 0.015625 0  0.796875 0.015625 0  0.8046875 0.015625 0  0.8125 0.015625 0  0.8203125 0.015625 0  0.828125 0.015625 0  0.8359375 0.015625 0  0.84375 0.015625 0  0.8515625 0.015625 0  0.859375 0.015625 0  0.8671875 0.015625 0  0.875 0.015625 0  0.8828125 0.015625 0  0.890625 0.015625 0  0.8984375 0.015625 0  0.90625 0.015625 0  0.9140625 0.015625 0  0.921875 0.015625 0  0.9296875 0.015625 0  0.9375 0.015625 0  0.9453125 0.015625 0  0.953125 0.015625 0  0.9609375 0.015625 0  0.96875 0.015625 0  0.9765625 0.015625 0  0.984375 0.015625 0  0.9921875 0.015625 0  1 0.015625 0  0 0.0234375 0  0.0078125 0.0234375 0  0.015625 0.0234375 0  0.0234375 0.0234375 0  0.03125 0.0234375 0  0.0390625 0.0234375 0  0.046875 0.0234375 0  0.0546875 0.0234375 0  0.0625 0.0234375 0  0.0703125 0.0234375 0  0.078125 0.0234375 0  0.0859375 0.0234375 0  0.09375 0.0234375 0  0.1015625 0.0234375 0  0.109375 0.0234375 0  0.1171875 0.0234375 0  0.125 0.0234375 0  0.1328125 0.0234375 0  0.140625 0.0234375 0  0.1484375 0.0234375 0  0.15625 0.0234375 0  0.1640625 0.0234375 0  0.171875 0.0234375 0  0.1796875 0.0234375 0  0.1875 0.0234375 0  0.1953125 0.0234375 0  0.203125 0.0234375 0  0.2109375 0.0234375 0  0.21875 0.0234375 0  0.2265625 0.0234375 0  0.234375 0.0234375 0  0.2421875 0.0234375 0  0.25 0.0234375 0  0.2578125 0.0234375 0  0.265625 0.0234375 0  0.2734375 0.0234375 0  0.28125 0.0234375 0  0.2890625 0.0234375 0  0.296875 0.0234375 0  0.3046875 0.0234375 0  0.3125 0.0234375 0  0.3203125 0.0234375 0  0.328125 0.0234375 0  0.3359375 0.0234375 0  0.34375 0.0234375 0  0.3515625 0.0234375 0  0.359375 0.0234375 0  0.3671875 0.0234375 0  0.375 0.0234375 0  0.3828125 0.0234375 0  0.390625 0.0234375 0  0.3984375 0.0234375 0  0.40625 0.0234375 0  0.4140625 0.0234375 0  0.421875 0.0234375 0  0.4296875 0.0234375 0  0.4375 0.0234375 0  0.4453125 0.0234375 0  0.453125 0.0234375 0  0.4609375 0.0234375 0  0.46875 0.0234375 0  0.4765625 0.0234375 0  0.484375 0.0234375 0  0.4921875 0.0234375 0  0.5 0.0234375 0  0.5078125 0.0234375 0  0.515625 0.0234375 0  0.5234375 0.0234375 0  0.53125 0.0234375 0  0.5390625 0.0234375 0  0.546875 0.0234375 0  0.5546875 0.0234375 0  0.5625 0.0234375 0  0.5703125 0.0234375 0  0.578125 0.0234375 0  0.5859375 0.0234375 0  0.59375 0.0234375 0  0.6015625 0.0234375 0  0.609375 0.0234375 0  0.6171875 0.0234375 0  0.625 0.0234375 0  0.6328125 0.0234375 0  0.640625 0.0234375 0  0.6484375 0.0234375 0  0.65625 0.0234375 0  0.6640625 0.0234375 0  0.671875 0.0234375 0  0.6796875 0.0234375 0  0.6875 0.0234375 0  0.6953125 0.0234375 0  0.703125 0.0234375 0  0.7109375 0.0234375 0  0.71875 0.0234375 0  0.7265625 0.0234375 0  0.734375 0.0234375 0  0.7421875 0.0234375 0  0.75 0.0234375 0  0.7578125 0.0234375 0  0.765625 0.0234375 0  0.7734375 0.0234375 0  0.78125 0.0234375 0  0.7890625 0.0234375 0  0.796875 0.0234375 0  0.8046875 0.0234375 0  0.8125 0.0234375 0  0.8203125 0.0234375 0  0.828125 0.0234375 0  0.8359375 0.0234375 0  0.84375 0.0234375 0  0.8515625 0.0234375 0  0.859375 0.0234375 0  0.8671
[...]
<PointData  Scalars="v_sol"> 
<DataArray  type="Float64"  Name="v_sol"  format="ascii">-2.0003139655424622e-06  1.1703565396929634e-06  1.3257978930909444e-05  2.5879759916026519e-05  3.6319544632110558e-05  4.3821768014582567e-05  4.8153372039641429e-05  4.9440695986396012e-05  4.8003726069351182e-05  4.4346171539257935e-05  3.9078867580245859e-05  3.2864052937598887e-05  2.6345478499984620e-05  2.0094093934864652e-05  1.4565051143033392e-05  1.0073056877185562e-05  6.7828561918977684e-06  4.7134913335784528e-06  3.7529320171265866e-06  3.6810541074450505e-06  4.1991118966897136e-06  4.9642318159097106e-06  5.6264436119983443e-06  5.8643437301473303e-06  5.4143416437479466e-06  4.0882985901587243e-06  1.7761667780737078e-06  -1.5663955092353920e-06  -5.9416842252023334e-06  -1.1337799898716171e-05  -1.7752490477893162e-05  -2.5208340109677665e-05  -3.3756017455662885e-05  -4.3466985510932796e-05  -5.4417552285913072e-05  -6.6674485734177658e-05  -8.0283309046662004e-05  -9.5262357540674432e-05  -1.1159043677689348e-04  -1.2920002196317582e-04  -1.4798005041678945e-04  -1.6776106533405923e-04  -1.8834389359342774e-04  -2.0946527784067708e-04  -2.3080057862074331e-04  -2.5200150964744519e-04  -2.7266633738603298e-04  -2.9237246314802823e-04  -3.1064969564522542e-04  -3.2704675702422179e-04  -3.4113664279209361e-04  -3.5246780127667378e-04  -3.6062824842232974e-04  -3.6524354602411336e-04  -3.6598243588285238e-04  -3.6256498507293344e-04  -3.5476538979493461e-04  -3.4241541265110490e-04  -3.2540507103067491e-04  -3.0368385801944652e-04  -2.7725988644689578e-04  -2.4620264966941998e-04  -2.1064001693369536e-04  -1.7076697453394729e-04  -1.2684192162561097e-04  -7.9187263035808493e-05  -2.8254330571857523e-05  2.5612311851169269e-05  8.1804618110368815e-05  1.3957401867195946e-04  1.9823117701349763e-04  2.5689462333575820e-04  3.1465235385755096e-04  3.7049052474387873e-04  4.2335256911166518e-04  4.7214108428439758e-04  5.1575874726459596e-04  5.5313737374248139e-04  5.8327972132767730e-04  6.0531209149441187e-04  6.1844628952375711e-04  6.2230477989771418e-04  6.1665021598340710e-04  6.0126973615706172e-04  5.7636323313822301e-04  5.4252789541568410e-04  5.0079542095756899e-04  4.5219489028003345e-04  3.9801252102599903e-04  3.3960587247287399e-04  2.7853118335479141e-04  2.1642722096953975e-04  1.5481127961648275e-04  9.5244413007346637e-05  3.8970668060520709e-05  -1.2896414710586198e-05  -5.9323013913499226e-05  -9.9703274062252145e-05  -1.3366475310240764e-04  -1.6096282137691807e-04  -1.8167288025131701e-04  -1.9604312533470501e-04  -2.0453114377926059e-04  -2.0770735621484227e-04  -2.0627248406077507e-04  -2.0097471257977538e-04  -1.9259012067505813e-04  -1.8187459648850141e-04  -1.6953353778452094e-04  -1.5620676635355406e-04  -1.4244385092366168e-04  -1.2869725746693876e-04  -1.1533183600759450e-04  -1.0262337677842801e-04  -9.0769090524775011e-05  -7.9898632075369055e-05  -7.0083397638272135e-05  -6.1336690061155038e-05  -5.3612202797527802e-05  -4.6794369518141677e-05  -4.0687699645657692e-05  -3.5007788036836807e-05  -2.9389172445459699e-05  -2.3417142391324171e-05  -1.6724293765112145e-05  -9.2059952548091583e-06  -1.4748531352252047e-06  3.9316822626315463e-06  1.6819636440460530e-06  1.1793907378999210e-05  1.3042205036644413e-07  -6.5941591022280647e-05  -1.3057675758220317e-04  -1.8391800258465269e-04  -2.2185682757452755e-04  -2.4368973745858894e-04  -2.5000134382053700e-04  -2.4249812645059680e-04  -2.2373861900685835e-04  -1.9685752763159780e-04  -1.6522994851063676e-04  -1.3213703114167425e-04  -1.0047761363838874e-04  -7.2556408847394824e-05  -4.9958934950715303e-05  -3.3507662659995191e-05  -2.3285772209813598e-05  -1.8713236335452051e-05  -1.8663784328182819e-05  -2.1614434853544016e-05  -2.5820163234008094e-05  -2.9502251065785335e-05  -3.1030303445151154e-05  -2.9071958544779547e-05  -2.2683319502363846e-05  -1.1321913027524860e-05  5.2182610857887053e-06  2.6929592773778860e-05  5.3735232475676249e-05  8.5613813116617923e-05  1.2267592676940871e-04  1.6517767630633225e-04  2.1348195446814090e-04  2.6798171453387259e-04  3.2902734310327823e-04  3.9685801464089845e-04  4.7156831502042138e-04  5.5304872664260090e-04  6.4097315577615519e-04  7.3479697999920658e-04  8.3369819436390194e-04  9.3668692140754146e-04  1.0424573659832436e-03  1.1494093972019223e-03  1.2558022015396700e-03  1.3596697930722140e-03  1.4588864798519617e-03  1.5511755511186654e-03  1.6342998999888106e-03  1.7060788738955186e-03  1.7643094779547211e-03  1.8069279780054208e-03  1.8320547444074296e-03  1.8380162065391810e-03  1.8233792020483303e-03  1.7869685784274540e-03  1.7278811194936974e-03  1.6454921051285991e-03  1.5394595600110139e-03  1.4097269528662842e-03  1.2565306630917658e-03  1.0804012225138313e-03  8.8220020596156158e-04  6.6308840400193655e-04  4.2457408167214912e-04  1.6882789997289691e-04  -1.0225677823491261e-04  -3.8593604205381131e-04  -6.7857116163301306e-04  -9.7653534112298788e-04  -1.2754687633744072e-03  -1.5706312871265010e-03  -1.8568165398333736e-03  -2.1284932391443037e-03  -2.3799045271001538e-03  -2.6052368893534020e-03  -2.7988050545656225e-03  -2.9552877690566847e-03  -3.0699144348766967e-03  -3.1387350082835988e-03  -3.1593512309359456e-03  -3.1303308973748664e-03  -3.0509224291873577e-03  -2.9222773590969514e-03  -2.7479622741965644e-03  -2.5331507970385294e-03  -2.2830389024881812e-03  -2.0042669569612943e-03  -1.7044402578237597e-03  -1.3920800372943260e-03  -1.0755414146858147e-03  -7.6235637611662098e-04  -4.6036865326353686e-04  -1.7608426904063153e-04  8.4887054896028480e-05  3.1772850009133323e-04  5.1957809755146401e-04  6.8849423172464576e-04  8.2355284051031539e-04  9.2533624026391967e-04  9.9520956979168057e-04  1.0355892088529846e-03  1.0494715271669938e-03  1.0404023097221251e-03  1.0121923939476528e-03  9.6873913387296971e-04  9.1383318327212650e-04  8.5100043824630652e-04  7.8342759264475917e-04  7.1384865406577084e-04  6.4450864527838987e-04  5.7720135128343317e-04  5.1328672633322409e-04  4.5373951593411362e-04  3.9919451666051294e-04  3.4999643709428193e-04  3.0620865196911268e-04  2.6759663171868777e-04  2.3358204885465996e-04  2.0317856655261359e-04  1.7495184415623253e-04  1.4702398514031845e-04  1.1727261229684147e-04  8.3675678833016099e-05  4.5568838998664903e-05  5.5392777565254084e-06  -2.4029615592654759e-05  -6.9717853314230965e-06  2.2269279663668721e-05  -9.3306109353116884e-05  -3.2791645035790405e-04  -5.6510609083577023e-04  -7.6493605625650469e-04  -9.0980830392972840e-04  -9.9407721816966279e-04  -1.0187626255389764e-03  -9.8967355424576663e-04  -9.1619310640075934e-04  -8.1003597708150085e-04  -6.8395554990198872e-04  -5.5047616585511842e-04  -4.2079434397062569e-04  -3.0394125864961747e-04  -2.0624979226551991e-04  -1.3112081549241676e-04  -7.9054149478832746e-05  -4.7901820021823388e-05  -3.3302588662983580e-05  -2.9264826170773663e-05  -2.8859316001934783e-05  -2.4963562393814913e-05  -1.0977317420788921e-05  1.8593808153622141e-05  6.7785728827113450e-05  1.3911570339557880e-04  2.3380977255294121e-04  3.5223863755534472e-04  4.9442791902079217e-04  6.6049712068657154e-04  8.5091047910214334e-04  1.0665035825656098e-03  1.3083160558872782e-03  1.5773246708019996e-03  1.8741096831489988e-03  2.1986088446466212e-03  2.5499113597336051e-03  2.9261955659787091e-03  3.3245639959107840e-03  3.7409438428429339e-03  4.1702281530722274e-03  4.6061554863658406e-03  5.0416026514275743e-03  5.4686775539298117e-03  5.8787059993119237e-03  6.2626366348037489e-03  6.6112702342408331e-03  6.9155567436057514e-03  7.1668301349738436e-03  7.3570786418736787e-03  7.4791962301647445e-03  7.5270994189801889e-03  7.4958643507118099e-03  7.3817926380688329e-03  7.1824214978511835e-03  6.8964992378075136e-03  6.5239290508619764e-03  6.0656974325341631e-03  5.5237977595824217e-03  4.9011614043339789e-03  4.2016026564913496e-03  3.4297923376051288e-03  2.5912294560291576e-03  1.6922904023134611e-03  7.4031981586492816e-04  -2.5718208218177761e-04  -1.2905838258421556e-03  -2.3490115912159506e-03  -3.4213431771905351e-03  -4.4947784515178262e-03  -5.5556124333814251e-03  -6.5889909135890762e-03  -7.5791789139520588e-03  -8.5097368357799370e-03  -9.3638473775711148e-03  -1.0124706979100000e-02  -1.0776014065165505e-02  -1.1302513518300172e-02  -1.1690627490196739e-02  -1.1929118286057789e-02  -1.2009472864379983e-02  -1.1926776034422625e-02  -1.1680320766977890e-02  -1.1273047726390876e-02  -1.0710872295809526e-02  -1.0004715664643124e-02  -9.1727239578361427e-03  -8.2348255668454155e-03  -7.2120929277992496e-03  -6.1268707614995886e-03  -5.0043774262299896e-03  -3.8717587187003140e-03  -2.7532613124899644e-03  -1.6725740370458571e-03  -6.5149391560083067e-04  2.9125874927085719e-04  1.1392525456791515e-03  1.8810534997591572e-03  2.5090250614390906e-03  3.0185731657910277e-03  3.4097724458643512e-03  3.6860450320494544e-03  3.8543361717638474e-03  3.9243187490415367e-03  3.9078457588607243e-03  3.8181811958430574e-03  3.6692467029073887e-03  3.4749206156470080e-03  3.2483520300519253e-03  3.0015257463604818e-03  2.7449599143519105e-03  2.4875054550860072e-03  2.2362842882304558e-03  1.9967524296594426e-03  1.7728677525933928e-03  1.5671728263531852e-03  1.3808475429252988e-03  1.2136714857695653e-03  1.0638962886376411e-03  9.2810192915248409e-04  8.0114743818650010e-04  6.7641109466260417e-04  5.4660939407412716e-04  4.0564516175184824e-04  2.5232237108029532e-04  9.7744634883730337e-05  -2.3256350833852745e-05  -1.9423090330253104e-05  2.2752843684521983e-05  -3.1597410993049738e-04  -7.8292078919263506e-04  -1.2427673139490539e-03  -1.6299733476018850e-03  -1.9113912590020174e-03  -2.0740311098503103e-03  -2.1185789361222096e-03  -2.0556808763009258e-03  -1.9033491542452101e-03  -1.6843518702333640e-03  -1.4236165668145208e-03  -1.1457423860473093e-03  -8.7284415833802217e-04  -6.2287936927151377e-04  -4.0853819931813731e-04  -2.3669972726245362e-04  -1.0841293362035390e-04  -1.9336624097425638e-05  3.9422612580720365e-05  8.0143317900643454e-05  1.1708285731783306e-04  1.6495417116320918e-04  2.3746809665019873e-04  3.4615291491252613e-04  4.9964482610116983e-04  7.0356106028744432e-04  9.6093304997263125e-04  1.2730295935044088e-03  1.6402957019554434e-03  2.0631207551753405e-03  2.5422472170695794e-03  3.0787252511521616e-03  3.6735100294966829e-03  4.3268642663936274e-03  5.0378015338140170e-03  5.8034649435022472e-03  6.6187593358859216e-03  7.4761372269244479e-03  8.3656540745774017e-03  9.2750328935686799e-03  1.0189635843762274e-02  1.1092935152272498e-02  1.1966838762713280e-02  1.2792271300245989e-02  1.3549883181541445e-02  1.4220614724390519e-02  1.4786399177878405e-02  1.5230769145348468e-02  1.5539382343537866e-02  1.5700412474253730e-02  1.5704788477184761e-02  1.5546302128097746e-02  1.5221564938004133e-02  1.4729862096379089e-02  1.4072918889342484e-02  1.3254615018129776e-02  1.2280680016206984e-02  1.1158396754613378e-02  9.8963369117194173e-03  8.5041448944995351e-03  6.9923816708949817e-03  5.3724297573778407e-03  3.6564637739768964e-03  1.8574759798224993e-03  -1.1061241027022254e-05  -1.9334600066529194e-03  -3.8934310650906227e-03  -5.8742456762629356e-03  -7.8569768323357141e-03  -9.8215609590349418e-03  -1.1746313714783367e-02  -1.3608136435334773e-02  -1.5382615366368159e-02  -1.7044311362605206e-02  -1.8567157141660490e-02  -1.9925004321145336e-02  -2.1092299341607893e-02  -2.2044886601324302e-02  -2.2760895109390476e-02  -2.3221654937434388e-02  -2.3412700431965347e-02  -2.3324511171546707e-02  -2.2953173962332679e-02  -2.2301281720385004e-02  -2.1379192772886347e-02  -2.0202814184733103e-02  -1.8791068680981762e-02  -1.7171360052898276e-02  -1.5378535973349993e-02  -1.3452367352967440e-02  -1.1431560714599409e-02  -9.3540352089212971e-03  -7.2628500116273002e-03  -5.1999156720919293e-03  -3.2044308521862281e-03  -1.3127942865858214e-03  4.4290130448764587e-04  2.0329063423604040e-03  3.4346866934326387e-03  4.6329632056568348e-03  5.6171627206182267e-03  6.3844975555844034e-03  6.9386870492102147e-03  7.2899937766489585e-03  7.4543472716691326e-03  7.4522836890152898e-03  7.3076427287748855e-03  7.0460908827098337e-03  6.6937337037490602e-03  6.2757923795687502e-03  5.8155427302060119e-03  5.3335424591369682e-03  4.8472655241191733e-03  4.3709715159808982e-03  3.9155994935048911e-03  3.4888927086002080e-03  3.0954596793018167e-03  2.7366843224578973e-03  2.4105685785992120e-03  2.1115658551913268e-03  1.8306584636178158e-03  1.5559973603682358e-03  1.2746541126974352e-03  9.7604604423183559e-04  6.5831748263354810e-04  3.3891358007342759e-04  6.9463630256649369e-05  -2.6053033160153517e-05  1.8328243514616093e-05  -6.5164680576640366e-04  -1.4136968487563700e-03  -2.1334135638416529e-03  -2.7305666337892375e-03  -3.1597782216729064e-03  -3.4017209453645471e-03  -3.4573347023855428e-03  -3.3431243080480617e-03  -3.0871526475476315e-03  -2.7248939940509604e-03  -2.2951258126887699e-03  -1.8360621090626346e-03  -1.3820223845111932e-03  -9.6083736433115658e-04  -5.9209395351536901e-04  -2.8623285200816734e-04  -4.4450137632029156e-05  1.4066209227703500e-04  2.8381746759250954e-04  4.0517991851085215e-04  5.2808694613491205e-04  6.7658022794015024e-04  8.7305129749437778e-04  1.1363531039024761e-03  1.4806891074613123e-03  1.9154377934504740e-03  2.4458352419306920e-03  3.0742137872398706e-03  3.8013592640986451e-03  4.6275289701322043e-03  5.5528439377063926e-03  6.5770654238397324e-03  7.6987995671158405e-03  8.9144401387835880e-03  1.0217199111835797e-02  1.1596565176674411e-02  1.3037861617572050e-02  1.4522090970693813e-02  1.6026146933822306e-02  1.7523303520851682e-02  1.8984064762220854e-02  2.0377025630108875e-02  2.1670046390117399e-02  2.2831507553797124e-02  2.3831537149278093e-02  2.4643174723975623e-02  2.5243312507235393e-02  2.5613410944894131e-02  2.5739912417307408e-02  2.5614352720022861e-02  2.5233201813765375e-02  2.4597482787299872e-02  2.3712226089154912e-02  2.2585824077375617e-02  2.1229353990005088e-02  1.9655921128482485e-02  1.7880067328940256e-02  1.5917274810601383e-02  1.3783583567812832e-02  1.1495329825174922e-02  9.0690063402593304e-03  6.5212309418676458e-03  3.8688365936963057e-03  1.1289181242401432e-03  -1.6801748062259009e-03  -4.5399500217106481e-03  -7.4311914850891392e-03  -1.0332494247707534e-02  -1.3221004860710921e-02  -1.6071861564422169e-02  -1.8858103151777428e-02  -2.1550638726049971e-02  -2.4118352462141081e-02  -2.6528378532215662e-02  -2.8746567176830780e-02  -3.0738148268846618e-02  -3.2468598645856737e-02  -3.3904690648074311e-02  -3.5015690188078888e-02  -3.5774661880946586e-02  -3.6159755644999562e-02  -3.6155456129978863e-02  -3.5753688998723075e-02  -3.4954715455982929e-02  -3.3766977704156993e-02  -3.2208292030791681e-02  -3.0306485838832577e-02  -2.8095716657133989e-02  -2.5615705689257324e-02  -2.2910527515829563e-02  -2.0032469050893870e-02  -1.7038674274009936e-02  -1.3982951643747150e-02  -1.0918950075594807e-02  -7.9003241282614694e-03  -4.9795192259164981e-03  -2.2057840444462662e-03  3.7812202887622264e-04  2.7312879803619650e-03  4.8198060844320901e-03  6.6200019802734600e-03  8.1144579575323939e-03  9.2957728515891663e-03  1.0166122608745201e-02  1.0737219549539887e-02  1.1029640054835184e-02  1.1071399384618477e-02  1.0896183904601679e-02  1.0541181367239616e-02  1.0044882230201729e-02  9.4450134888057740e-03  8.7768613537198160e-03  8.0719393354515036e-03  7.3571141261404909e-03  6.6542961304424612e-03  5.9801676821295757e-03  5.3459895821235731e-03  4.7574743145631484e-03  4.2145337781353829e-03  3.7111367494021695e-03  3.2355485556513513e-03  2.7714164867818922e-03  2.3003663106697298e-03  1.8067356771998733e-03  1.2857015912482327e-03  7.5545594569438959e-04  2.7352451354750880e-04  -2.7155005569480803e-05  1.1261045150598134e-05  -1.0798286222871809e-03  -2.1947716577692365e-03  -3.2060044409338655e-03  -4.0264792030100388e-03  -4.6034137135590441e-03  -4.9141843592286254e-03  -4.9621886583371480e-03  -4.7717531427140802e-03  -4.3828251761989572e-03  -3.8451990550842125e-03  -3.2127714324740818e-03  -2.5382120264159105e-03  -1.8684327507330889e-03  -1.2410876717151057e-03  -6.8220959172673892e-04  -2.0498437450618113e-04  1.9038147449369742e-04  5.1576758904566910e-04  7.9330358765668241e-04  1.0526990395662685e-03  1.3279536213741362e-03  1.6537907416096758e-03  2.0622854761479306e-03  2.5802175567336415e-03  3.2275752122434996e-03  4.0173889078145980e-03  4.9567326799615317e-03  6.0483748237264972e-03  7.2924250044775667e-03  8.6874310045829423e-03  1.0230504089626792e-02  1.1916542346154798e-02  1.3737088377805941e-02  1.5679060475884559e-02  1.7723641149835635e-02  1.9845622591682561e-02  2.2013461995636842e-02  2.4189864292637097e-02  2.6332777246264524e-02  2.8396884720204262e-02  3.0335393350881066e-02  3.2102038666168425e-02  3.3653096140834803e-02  3.4949245289834632e-02  3.5957125724131823e-02  3.6650463542228243e-02  3.7010696697884510e-02  3.7027084542170401e-02  3.6696357632639169e-02  3.6021994000363391e-02  3.5013233493894270e-02  3.3683944699578854e-02  3.2051457979235205e-02  3.0135455055603767e-02  2.7956981425214661e-02  2.5537626481870069e-02  2.2898893249866777e-02  2.0061762322873412e-02  1.7046441830838706e-02  1.3872287852842991e-02  1.0557872233679266e-02  7.1211848340501805e-03  3.5799115654173265e-03  -4.7974273513933343e-05  -3.7443714365054661e-03  -7.4903462419087623e-03  -1.1265004611318971e-02  -1.5045640194499620e-02  -1.8807224987646101e-02  -2.2521927906940860e-02  -2.6158943612957068e-02  -2.9684321489055917e-02  -3.3061026963395683e-02  -3.6249195347370415e-02  -3.9206633034694308e-02  -4.1889586914966144e-02  -4.4253789983723285e-02  -4.6255774822318046e-02  -4.7854418931094794e-02  -4.9012649406719906e-02  -4.9699231412412066e-02  -4.9890511952195252e-02  -4.9571979493911324e-02  -4.8739410107951853e-02  -4.7399938269808220e-02  -4.5572143788148466e-02  -4.3285452306604182e-02  -4.0579585571796493e-02  -3.7503462931196642e-02  -3.4114107022486830e-02  -3.0472143757597304e-02  -2.6640499969595242e-02  -2.2685437279289990e-02  -1.8674193592677937e-02  -1.4672933861430914e-02  -1.0744090412138611e-02  -6.9469799428827517e-03  -3.3392208524631803e-03  2.8223718228195316e-05  3.1067125670820039e-03  5.8532947988261443e-03  8.2366197134454925e-03  1.0232912854856224e-02  1.1829599434604049e-02  1.3026260230815106e-02  1.3834618475563679e-02  1.4278250800059403e-02  1.4391019432449392e-02  1.4214931893418641e-02  1.3797387780340646e-02  1.3188252287117674e-02  1.2437010318275307e-02  1.1590347513325676e-02  1.0690294508638093e-02  9.7727664736555163e-03  8.8667452472661421e-03  7.9936948414974264e-03  7.1669623267752672e-03  6.3913834389060778e-03  5.6630413612238041e-03  4.9695977355196643e-03  4.2916781183965991e-03  3.6060325612035996e-03  2.8910534337192001e-03  2.1357108999362912e-03  1.3521478995794734e-03  5.9161666934929007e-04  -2.3243833023946881e-05  2.8693788108119959e-06  -1.5830119450480061e-03  -3.1023314670530632e-03  -4.4327672785530580e-03  -5.4843354983181341e-03  -6.2010975591734498e-03  -6.5610205395211273e-03  -6.5734005841837639e-03  -6.2734472642000773e-03  -5.7155980222060344e-03  -4.9659676887669332e-03  -4.0948408263120160e-03  -3.1698343670273610e-03  -2.2502082600376048e-03  -1.3825646931750792e-03  -5.9800568397414022e-04  8.9278971221050152e-05  6.8205126981717970e-04  1.1987522983959728e-03  1.6709715392955809e-03  2.1397951659956915e-03  2.6513239754185920e-03  3.2518569875048492e-03  3.9834236262083792e-03  4.8803826708911612e-03  5.9676530599114264e-03  7.2606861044791741e-03  8.7668209724231175e-03  1.0487297550880072e-02  1.2418939694760558e-02  1.4554886481827879e-02  1.6884352038512511e-02  1.9391481287790641e-02  2.2053727473944271e-02  2.4840560331127349e-02  2.7712892381158257e-02  3.0623321496626318e-02  3.3517240524469999e-02  3.6334753017491596e-02  3.9013189482227012e-02  4.1489970310155014e-02  4